V -t * -v 1.0a5 -a 0
A -t * -n 1 -p 0 -o 0x7fffffff -c 30 -a 1
A -t * -h 1 -m 1073741823 -s 0
c -t * -i 1 -n Blue
n -t * -a 0 -s 0 -S UP -v circle -c black -i black
n -t * -a 1 -s 1 -S UP -v circle -c black -i black
l -t * -s 0 -d 1 -S UP -r 1000000 -D 0.10000000000000001 -c black -o right
+ -t 0.5 -s 0 -d 1 -p tcp -e 40 -c 1 -i 0 -a 1 -x {0.0 1.0 0 ------- null}
- -t 0.5 -s 0 -d 1 -p tcp -e 40 -c 1 -i 0 -a 1 -x {0.0 1.0 0 ------- null}
h -t 0.5 -s 0 -d 1 -p tcp -e 40 -c 1 -i 0 -a 1 -x {0.0 1.0 -1 ------- null}
r -t 0.60032 -s 0 -d 1 -p tcp -e 40 -c 1 -i 0 -a 1 -x {0.0 1.0 0 ------- null}
+ -t 0.60032 -s 1 -d 0 -p ack -e 40 -c 1 -i 1 -a 1 -x {1.0 0.0 0 ------- null}
- -t 0.60032 -s 1 -d 0 -p ack -e 40 -c 1 -i 1 -a 1 -x {1.0 0.0 0 ------- null}
h -t 0.60032 -s 1 -d 0 -p ack -e 40 -c 1 -i 1 -a 1 -x {1.0 0.0 -1 ------- null}
r -t 0.70064 -s 1 -d 0 -p ack -e 40 -c 1 -i 1 -a 1 -x {1.0 0.0 0 ------- null}
+ -t 0.70064 -s 0 -d 1 -p tcp -e 1040 -c 1 -i 2 -a 1 -x {0.0 1.0 1 ------- null}
- -t 0.70064 -s 0 -d 1 -p tcp -e 1040 -c 1 -i 2 -a 1 -x {0.0 1.0 1 ------- null}
h -t 0.70064 -s 0 -d 1 -p tcp -e 1040 -c 1 -i 2 -a 1 -x {0.0 1.0 -1 ------- null}
+ -t 0.70064 -s 0 -d 1 -p tcp -e 1040 -c 1 -i 3 -a 1 -x {0.0 1.0 2 ------- null}
- -t 0.70896 -s 0 -d 1 -p tcp -e 1040 -c 1 -i 3 -a 1 -x {0.0 1.0 2 ------- null}
h -t 0.70896 -s 0 -d 1 -p tcp -e 1040 -c 1 -i 3 -a 1 -x {0.0 1.0 -1 ------- null}
r -t 0.80896 -s 0 -d 1 -p tcp -e 1040 -c 1 -i 2 -a 1 -x {0.0 1.0 1 ------- null}
+ -t 0.80896 -s 1 -d 0 -p ack -e 40 -c 1 -i 4 -a 1 -x {1.0 0.0 1 ------- null}
- -t 0.80896 -s 1 -d 0 -p ack -e 40 -c 1 -i 4 -a 1 -x {1.0 0.0 1 ------- null}
h -t 0.80896 -s 1 -d 0 -p ack -e 40 -c 1 -i 4 -a 1 -x {1.0 0.0 -1 ------- null}
r -t 0.81728 -s 0 -d 1 -p tcp -e 1040 -c 1 -i 3 -a 1 -x {0.0 1.0 2 ------- null}
+ -t 0.81728 -s 1 -d 0 -p ack -e 40 -c 1 -i 5 -a 1 -x {1.0 0.0 2 ------- null}
- -t 0.81728 -s 1 -d 0 -p ack -e 40 -c 1 -i 5 -a 1 -x {1.0 0.0 2 ------- null}
h -t 0.81728 -s 1 -d 0 -p ack -e 40 -c 1 -i 5 -a 1 -x {1.0 0.0 -1 ------- null}
r -t 0.90928 -s 1 -d 0 -p ack -e 40 -c 1 -i 4 -a 1 -x {1.0 0.0 1 ------- null}
+ -t 0.90928 -s 0 -d 1 -p tcp -e 1040 -c 1 -i 6 -a 1 -x {0.0 1.0 3 ------- null}
- -t 0.90928 -s 0 -d 1 -p tcp -e 1040 -c 1 -i 6 -a 1 -x {0.0 1.0 3 ------- null}
h -t 0.90928 -s 0 -d 1 -p tcp -e 1040 -c 1 -i 6 -a 1 -x {0.0 1.0 -1 ------- null}
+ -t 0.90928 -s 0 -d 1 -p tcp -e 1040 -c 1 -i 7 -a 1 -x {0.0 1.0 4 ------- null}
r -t 0.9176 -s 1 -d 0 -p ack -e 40 -c 1 -i 5 -a 1 -x {1.0 0.0 2 ------- null}
+ -t 0.9176 -s 0 -d 1 -p tcp -e 1040 -c 1 -i 8 -a 1 -x {0.0 1.0 5 ------- null}
+ -t 0.9176 -s 0 -d 1 -p tcp -e 1040 -c 1 -i 9 -a 1 -x {0.0 1.0 6 ------- null}
- -t 0.9176 -s 0 -d 1 -p tcp -e 1040 -c 1 -i 7 -a 1 -x {0.0 1.0 4 ------- null}
h -t 0.9176 -s 0 -d 1 -p tcp -e 1040 -c 1 -i 7 -a 1 -x {0.0 1.0 -1 ------- null}
- -t 0.92592 -s 0 -d 1 -p tcp -e 1040 -c 1 -i 8 -a 1 -x {0.0 1.0 5 ------- null}
h -t 0.92592 -s 0 -d 1 -p tcp -e 1040 -c 1 -i 8 -a 1 -x {0.0 1.0 -1 ------- null}
- -t 0.93424 -s 0 -d 1 -p tcp -e 1040 -c 1 -i 9 -a 1 -x {0.0 1.0 6 ------- null}
h -t 0.93424 -s 0 -d 1 -p tcp -e 1040 -c 1 -i 9 -a 1 -x {0.0 1.0 -1 ------- null}
r -t 1.0176 -s 0 -d 1 -p tcp -e 1040 -c 1 -i 6 -a 1 -x {0.0 1.0 3 ------- null}
+ -t 1.0176 -s 1 -d 0 -p ack -e 40 -c 1 -i 10 -a 1 -x {1.0 0.0 3 ------- null}
- -t 1.0176 -s 1 -d 0 -p ack -e 40 -c 1 -i 10 -a 1 -x {1.0 0.0 3 ------- null}
h -t 1.0176 -s 1 -d 0 -p ack -e 40 -c 1 -i 10 -a 1 -x {1.0 0.0 -1 ------- null}
r -t 1.02592 -s 0 -d 1 -p tcp -e 1040 -c 1 -i 7 -a 1 -x {0.0 1.0 4 ------- null}
+ -t 1.02592 -s 1 -d 0 -p ack -e 40 -c 1 -i 11 -a 1 -x {1.0 0.0 4 ------- null}
- -t 1.02592 -s 1 -d 0 -p ack -e 40 -c 1 -i 11 -a 1 -x {1.0 0.0 4 ------- null}
h -t 1.02592 -s 1 -d 0 -p ack -e 40 -c 1 -i 11 -a 1 -x {1.0 0.0 -1 ------- null}
r -t 1.03424 -s 0 -d 1 -p tcp -e 1040 -c 1 -i 8 -a 1 -x {0.0 1.0 5 ------- null}
+ -t 1.03424 -s 1 -d 0 -p ack -e 40 -c 1 -i 12 -a 1 -x {1.0 0.0 5 ------- null}
- -t 1.03424 -s 1 -d 0 -p ack -e 40 -c 1 -i 12 -a 1 -x {1.0 0.0 5 ------- null}
h -t 1.03424 -s 1 -d 0 -p ack -e 40 -c 1 -i 12 -a 1 -x {1.0 0.0 -1 ------- null}
r -t 1.04256 -s 0 -d 1 -p tcp -e 1040 -c 1 -i 9 -a 1 -x {0.0 1.0 6 ------- null}
+ -t 1.04256 -s 1 -d 0 -p ack -e 40 -c 1 -i 13 -a 1 -x {1.0 0.0 6 ------- null}
- -t 1.04256 -s 1 -d 0 -p ack -e 40 -c 1 -i 13 -a 1 -x {1.0 0.0 6 ------- null}
h -t 1.04256 -s 1 -d 0 -p ack -e 40 -c 1 -i 13 -a 1 -x {1.0 0.0 -1 ------- null}
r -t 1.11792 -s 1 -d 0 -p ack -e 40 -c 1 -i 10 -a 1 -x {1.0 0.0 3 ------- null}
+ -t 1.11792 -s 0 -d 1 -p tcp -e 1040 -c 1 -i 14 -a 1 -x {0.0 1.0 7 ------- null}
- -t 1.11792 -s 0 -d 1 -p tcp -e 1040 -c 1 -i 14 -a 1 -x {0.0 1.0 7 ------- null}
h -t 1.11792 -s 0 -d 1 -p tcp -e 1040 -c 1 -i 14 -a 1 -x {0.0 1.0 -1 ------- null}
+ -t 1.11792 -s 0 -d 1 -p tcp -e 1040 -c 1 -i 15 -a 1 -x {0.0 1.0 8 ------- null}
r -t 1.12624 -s 1 -d 0 -p ack -e 40 -c 1 -i 11 -a 1 -x {1.0 0.0 4 ------- null}
+ -t 1.12624 -s 0 -d 1 -p tcp -e 1040 -c 1 -i 16 -a 1 -x {0.0 1.0 9 ------- null}
+ -t 1.12624 -s 0 -d 1 -p tcp -e 1040 -c 1 -i 17 -a 1 -x {0.0 1.0 10 ------- null}
- -t 1.12624 -s 0 -d 1 -p tcp -e 1040 -c 1 -i 15 -a 1 -x {0.0 1.0 8 ------- null}
h -t 1.12624 -s 0 -d 1 -p tcp -e 1040 -c 1 -i 15 -a 1 -x {0.0 1.0 -1 ------- null}
r -t 1.13456 -s 1 -d 0 -p ack -e 40 -c 1 -i 12 -a 1 -x {1.0 0.0 5 ------- null}
+ -t 1.13456 -s 0 -d 1 -p tcp -e 1040 -c 1 -i 18 -a 1 -x {0.0 1.0 11 ------- null}
+ -t 1.13456 -s 0 -d 1 -p tcp -e 1040 -c 1 -i 19 -a 1 -x {0.0 1.0 12 ------- null}
- -t 1.13456 -s 0 -d 1 -p tcp -e 1040 -c 1 -i 16 -a 1 -x {0.0 1.0 9 ------- null}
h -t 1.13456 -s 0 -d 1 -p tcp -e 1040 -c 1 -i 16 -a 1 -x {0.0 1.0 -1 ------- null}
r -t 1.14288 -s 1 -d 0 -p ack -e 40 -c 1 -i 13 -a 1 -x {1.0 0.0 6 ------- null}
+ -t 1.14288 -s 0 -d 1 -p tcp -e 1040 -c 1 -i 20 -a 1 -x {0.0 1.0 13 ------- null}
+ -t 1.14288 -s 0 -d 1 -p tcp -e 1040 -c 1 -i 21 -a 1 -x {0.0 1.0 14 ------- null}
- -t 1.14288 -s 0 -d 1 -p tcp -e 1040 -c 1 -i 17 -a 1 -x {0.0 1.0 10 ------- null}
h -t 1.14288 -s 0 -d 1 -p tcp -e 1040 -c 1 -i 17 -a 1 -x {0.0 1.0 -1 ------- null}
- -t 1.1512 -s 0 -d 1 -p tcp -e 1040 -c 1 -i 18 -a 1 -x {0.0 1.0 11 ------- null}
h -t 1.1512 -s 0 -d 1 -p tcp -e 1040 -c 1 -i 18 -a 1 -x {0.0 1.0 -1 ------- null}
- -t 1.15952 -s 0 -d 1 -p tcp -e 1040 -c 1 -i 19 -a 1 -x {0.0 1.0 12 ------- null}
h -t 1.15952 -s 0 -d 1 -p tcp -e 1040 -c 1 -i 19 -a 1 -x {0.0 1.0 -1 ------- null}
- -t 1.16784 -s 0 -d 1 -p tcp -e 1040 -c 1 -i 20 -a 1 -x {0.0 1.0 13 ------- null}
h -t 1.16784 -s 0 -d 1 -p tcp -e 1040 -c 1 -i 20 -a 1 -x {0.0 1.0 -1 ------- null}
- -t 1.17616 -s 0 -d 1 -p tcp -e 1040 -c 1 -i 21 -a 1 -x {0.0 1.0 14 ------- null}
h -t 1.17616 -s 0 -d 1 -p tcp -e 1040 -c 1 -i 21 -a 1 -x {0.0 1.0 -1 ------- null}
r -t 1.22624 -s 0 -d 1 -p tcp -e 1040 -c 1 -i 14 -a 1 -x {0.0 1.0 7 ------- null}
+ -t 1.22624 -s 1 -d 0 -p ack -e 40 -c 1 -i 22 -a 1 -x {1.0 0.0 7 ------- null}
- -t 1.22624 -s 1 -d 0 -p ack -e 40 -c 1 -i 22 -a 1 -x {1.0 0.0 7 ------- null}
h -t 1.22624 -s 1 -d 0 -p ack -e 40 -c 1 -i 22 -a 1 -x {1.0 0.0 -1 ------- null}
r -t 1.23456 -s 0 -d 1 -p tcp -e 1040 -c 1 -i 15 -a 1 -x {0.0 1.0 8 ------- null}
+ -t 1.23456 -s 1 -d 0 -p ack -e 40 -c 1 -i 23 -a 1 -x {1.0 0.0 8 ------- null}
- -t 1.23456 -s 1 -d 0 -p ack -e 40 -c 1 -i 23 -a 1 -x {1.0 0.0 8 ------- null}
h -t 1.23456 -s 1 -d 0 -p ack -e 40 -c 1 -i 23 -a 1 -x {1.0 0.0 -1 ------- null}
r -t 1.24288 -s 0 -d 1 -p tcp -e 1040 -c 1 -i 16 -a 1 -x {0.0 1.0 9 ------- null}
+ -t 1.24288 -s 1 -d 0 -p ack -e 40 -c 1 -i 24 -a 1 -x {1.0 0.0 9 ------- null}
- -t 1.24288 -s 1 -d 0 -p ack -e 40 -c 1 -i 24 -a 1 -x {1.0 0.0 9 ------- null}
h -t 1.24288 -s 1 -d 0 -p ack -e 40 -c 1 -i 24 -a 1 -x {1.0 0.0 -1 ------- null}
r -t 1.2512 -s 0 -d 1 -p tcp -e 1040 -c 1 -i 17 -a 1 -x {0.0 1.0 10 ------- null}
+ -t 1.2512 -s 1 -d 0 -p ack -e 40 -c 1 -i 25 -a 1 -x {1.0 0.0 10 ------- null}
- -t 1.2512 -s 1 -d 0 -p ack -e 40 -c 1 -i 25 -a 1 -x {1.0 0.0 10 ------- null}
h -t 1.2512 -s 1 -d 0 -p ack -e 40 -c 1 -i 25 -a 1 -x {1.0 0.0 -1 ------- null}
r -t 1.25952 -s 0 -d 1 -p tcp -e 1040 -c 1 -i 18 -a 1 -x {0.0 1.0 11 ------- null}
+ -t 1.25952 -s 1 -d 0 -p ack -e 40 -c 1 -i 26 -a 1 -x {1.0 0.0 11 ------- null}
- -t 1.25952 -s 1 -d 0 -p ack -e 40 -c 1 -i 26 -a 1 -x {1.0 0.0 11 ------- null}
h -t 1.25952 -s 1 -d 0 -p ack -e 40 -c 1 -i 26 -a 1 -x {1.0 0.0 -1 ------- null}
r -t 1.26784 -s 0 -d 1 -p tcp -e 1040 -c 1 -i 19 -a 1 -x {0.0 1.0 12 ------- null}
+ -t 1.26784 -s 1 -d 0 -p ack -e 40 -c 1 -i 27 -a 1 -x {1.0 0.0 12 ------- null}
- -t 1.26784 -s 1 -d 0 -p ack -e 40 -c 1 -i 27 -a 1 -x {1.0 0.0 12 ------- null}
h -t 1.26784 -s 1 -d 0 -p ack -e 40 -c 1 -i 27 -a 1 -x {1.0 0.0 -1 ------- null}
r -t 1.27616 -s 0 -d 1 -p tcp -e 1040 -c 1 -i 20 -a 1 -x {0.0 1.0 13 ------- null}
+ -t 1.27616 -s 1 -d 0 -p ack -e 40 -c 1 -i 28 -a 1 -x {1.0 0.0 13 ------- null}
- -t 1.27616 -s 1 -d 0 -p ack -e 40 -c 1 -i 28 -a 1 -x {1.0 0.0 13 ------- null}
h -t 1.27616 -s 1 -d 0 -p ack -e 40 -c 1 -i 28 -a 1 -x {1.0 0.0 -1 ------- null}
r -t 1.28448 -s 0 -d 1 -p tcp -e 1040 -c 1 -i 21 -a 1 -x {0.0 1.0 14 ------- null}
+ -t 1.28448 -s 1 -d 0 -p ack -e 40 -c 1 -i 29 -a 1 -x {1.0 0.0 14 ------- null}
- -t 1.28448 -s 1 -d 0 -p ack -e 40 -c 1 -i 29 -a 1 -x {1.0 0.0 14 ------- null}
h -t 1.28448 -s 1 -d 0 -p ack -e 40 -c 1 -i 29 -a 1 -x {1.0 0.0 -1 ------- null}
r -t 1.32656 -s 1 -d 0 -p ack -e 40 -c 1 -i 22 -a 1 -x {1.0 0.0 7 ------- null}
+ -t 1.32656 -s 0 -d 1 -p tcp -e 1040 -c 1 -i 30 -a 1 -x {0.0 1.0 15 ------- null}
- -t 1.32656 -s 0 -d 1 -p tcp -e 1040 -c 1 -i 30 -a 1 -x {0.0 1.0 15 ------- null}
h -t 1.32656 -s 0 -d 1 -p tcp -e 1040 -c 1 -i 30 -a 1 -x {0.0 1.0 -1 ------- null}
+ -t 1.32656 -s 0 -d 1 -p tcp -e 1040 -c 1 -i 31 -a 1 -x {0.0 1.0 16 ------- null}
r -t 1.33488 -s 1 -d 0 -p ack -e 40 -c 1 -i 23 -a 1 -x {1.0 0.0 8 ------- null}
+ -t 1.33488 -s 0 -d 1 -p tcp -e 1040 -c 1 -i 32 -a 1 -x {0.0 1.0 17 ------- null}
+ -t 1.33488 -s 0 -d 1 -p tcp -e 1040 -c 1 -i 33 -a 1 -x {0.0 1.0 18 ------- null}
- -t 1.33488 -s 0 -d 1 -p tcp -e 1040 -c 1 -i 31 -a 1 -x {0.0 1.0 16 ------- null}
h -t 1.33488 -s 0 -d 1 -p tcp -e 1040 -c 1 -i 31 -a 1 -x {0.0 1.0 -1 ------- null}
r -t 1.3432 -s 1 -d 0 -p ack -e 40 -c 1 -i 24 -a 1 -x {1.0 0.0 9 ------- null}
+ -t 1.3432 -s 0 -d 1 -p tcp -e 1040 -c 1 -i 34 -a 1 -x {0.0 1.0 19 ------- null}
+ -t 1.3432 -s 0 -d 1 -p tcp -e 1040 -c 1 -i 35 -a 1 -x {0.0 1.0 20 ------- null}
- -t 1.3432 -s 0 -d 1 -p tcp -e 1040 -c 1 -i 32 -a 1 -x {0.0 1.0 17 ------- null}
h -t 1.3432 -s 0 -d 1 -p tcp -e 1040 -c 1 -i 32 -a 1 -x {0.0 1.0 -1 ------- null}
r -t 1.35152 -s 1 -d 0 -p ack -e 40 -c 1 -i 25 -a 1 -x {1.0 0.0 10 ------- null}
+ -t 1.35152 -s 0 -d 1 -p tcp -e 1040 -c 1 -i 36 -a 1 -x {0.0 1.0 21 ------- null}
+ -t 1.35152 -s 0 -d 1 -p tcp -e 1040 -c 1 -i 37 -a 1 -x {0.0 1.0 22 ------- null}
- -t 1.35152 -s 0 -d 1 -p tcp -e 1040 -c 1 -i 33 -a 1 -x {0.0 1.0 18 ------- null}
h -t 1.35152 -s 0 -d 1 -p tcp -e 1040 -c 1 -i 33 -a 1 -x {0.0 1.0 -1 ------- null}
r -t 1.35984 -s 1 -d 0 -p ack -e 40 -c 1 -i 26 -a 1 -x {1.0 0.0 11 ------- null}
+ -t 1.35984 -s 0 -d 1 -p tcp -e 1040 -c 1 -i 38 -a 1 -x {0.0 1.0 23 ------- null}
+ -t 1.35984 -s 0 -d 1 -p tcp -e 1040 -c 1 -i 39 -a 1 -x {0.0 1.0 24 ------- null}
- -t 1.35984 -s 0 -d 1 -p tcp -e 1040 -c 1 -i 34 -a 1 -x {0.0 1.0 19 ------- null}
h -t 1.35984 -s 0 -d 1 -p tcp -e 1040 -c 1 -i 34 -a 1 -x {0.0 1.0 -1 ------- null}
r -t 1.36816 -s 1 -d 0 -p ack -e 40 -c 1 -i 27 -a 1 -x {1.0 0.0 12 ------- null}
+ -t 1.36816 -s 0 -d 1 -p tcp -e 1040 -c 1 -i 40 -a 1 -x {0.0 1.0 25 ------- null}
+ -t 1.36816 -s 0 -d 1 -p tcp -e 1040 -c 1 -i 41 -a 1 -x {0.0 1.0 26 ------- null}
- -t 1.36816 -s 0 -d 1 -p tcp -e 1040 -c 1 -i 35 -a 1 -x {0.0 1.0 20 ------- null}
h -t 1.36816 -s 0 -d 1 -p tcp -e 1040 -c 1 -i 35 -a 1 -x {0.0 1.0 -1 ------- null}
r -t 1.37648 -s 1 -d 0 -p ack -e 40 -c 1 -i 28 -a 1 -x {1.0 0.0 13 ------- null}
+ -t 1.37648 -s 0 -d 1 -p tcp -e 1040 -c 1 -i 42 -a 1 -x {0.0 1.0 27 ------- null}
+ -t 1.37648 -s 0 -d 1 -p tcp -e 1040 -c 1 -i 43 -a 1 -x {0.0 1.0 28 ------- null}
- -t 1.37648 -s 0 -d 1 -p tcp -e 1040 -c 1 -i 36 -a 1 -x {0.0 1.0 21 ------- null}
h -t 1.37648 -s 0 -d 1 -p tcp -e 1040 -c 1 -i 36 -a 1 -x {0.0 1.0 -1 ------- null}
r -t 1.3848 -s 1 -d 0 -p ack -e 40 -c 1 -i 29 -a 1 -x {1.0 0.0 14 ------- null}
+ -t 1.3848 -s 0 -d 1 -p tcp -e 1040 -c 1 -i 44 -a 1 -x {0.0 1.0 29 ------- null}
+ -t 1.3848 -s 0 -d 1 -p tcp -e 1040 -c 1 -i 45 -a 1 -x {0.0 1.0 30 ------- null}
- -t 1.3848 -s 0 -d 1 -p tcp -e 1040 -c 1 -i 37 -a 1 -x {0.0 1.0 22 ------- null}
h -t 1.3848 -s 0 -d 1 -p tcp -e 1040 -c 1 -i 37 -a 1 -x {0.0 1.0 -1 ------- null}
- -t 1.39312 -s 0 -d 1 -p tcp -e 1040 -c 1 -i 38 -a 1 -x {0.0 1.0 23 ------- null}
h -t 1.39312 -s 0 -d 1 -p tcp -e 1040 -c 1 -i 38 -a 1 -x {0.0 1.0 -1 ------- null}
- -t 1.40144 -s 0 -d 1 -p tcp -e 1040 -c 1 -i 39 -a 1 -x {0.0 1.0 24 ------- null}
h -t 1.40144 -s 0 -d 1 -p tcp -e 1040 -c 1 -i 39 -a 1 -x {0.0 1.0 -1 ------- null}
- -t 1.40976 -s 0 -d 1 -p tcp -e 1040 -c 1 -i 40 -a 1 -x {0.0 1.0 25 ------- null}
h -t 1.40976 -s 0 -d 1 -p tcp -e 1040 -c 1 -i 40 -a 1 -x {0.0 1.0 -1 ------- null}
- -t 1.41808 -s 0 -d 1 -p tcp -e 1040 -c 1 -i 41 -a 1 -x {0.0 1.0 26 ------- null}
h -t 1.41808 -s 0 -d 1 -p tcp -e 1040 -c 1 -i 41 -a 1 -x {0.0 1.0 -1 ------- null}
- -t 1.4264 -s 0 -d 1 -p tcp -e 1040 -c 1 -i 42 -a 1 -x {0.0 1.0 27 ------- null}
h -t 1.4264 -s 0 -d 1 -p tcp -e 1040 -c 1 -i 42 -a 1 -x {0.0 1.0 -1 ------- null}
- -t 1.43472 -s 0 -d 1 -p tcp -e 1040 -c 1 -i 43 -a 1 -x {0.0 1.0 28 ------- null}
h -t 1.43472 -s 0 -d 1 -p tcp -e 1040 -c 1 -i 43 -a 1 -x {0.0 1.0 -1 ------- null}
r -t 1.43488 -s 0 -d 1 -p tcp -e 1040 -c 1 -i 30 -a 1 -x {0.0 1.0 15 ------- null}
+ -t 1.43488 -s 1 -d 0 -p ack -e 40 -c 1 -i 46 -a 1 -x {1.0 0.0 15 ------- null}
- -t 1.43488 -s 1 -d 0 -p ack -e 40 -c 1 -i 46 -a 1 -x {1.0 0.0 15 ------- null}
h -t 1.43488 -s 1 -d 0 -p ack -e 40 -c 1 -i 46 -a 1 -x {1.0 0.0 -1 ------- null}
- -t 1.44304 -s 0 -d 1 -p tcp -e 1040 -c 1 -i 44 -a 1 -x {0.0 1.0 29 ------- null}
h -t 1.44304 -s 0 -d 1 -p tcp -e 1040 -c 1 -i 44 -a 1 -x {0.0 1.0 -1 ------- null}
r -t 1.4432 -s 0 -d 1 -p tcp -e 1040 -c 1 -i 31 -a 1 -x {0.0 1.0 16 ------- null}
+ -t 1.4432 -s 1 -d 0 -p ack -e 40 -c 1 -i 47 -a 1 -x {1.0 0.0 16 ------- null}
- -t 1.4432 -s 1 -d 0 -p ack -e 40 -c 1 -i 47 -a 1 -x {1.0 0.0 16 ------- null}
h -t 1.4432 -s 1 -d 0 -p ack -e 40 -c 1 -i 47 -a 1 -x {1.0 0.0 -1 ------- null}
- -t 1.45136 -s 0 -d 1 -p tcp -e 1040 -c 1 -i 45 -a 1 -x {0.0 1.0 30 ------- null}
h -t 1.45136 -s 0 -d 1 -p tcp -e 1040 -c 1 -i 45 -a 1 -x {0.0 1.0 -1 ------- null}
r -t 1.45152 -s 0 -d 1 -p tcp -e 1040 -c 1 -i 32 -a 1 -x {0.0 1.0 17 ------- null}
+ -t 1.45152 -s 1 -d 0 -p ack -e 40 -c 1 -i 48 -a 1 -x {1.0 0.0 17 ------- null}
- -t 1.45152 -s 1 -d 0 -p ack -e 40 -c 1 -i 48 -a 1 -x {1.0 0.0 17 ------- null}
h -t 1.45152 -s 1 -d 0 -p ack -e 40 -c 1 -i 48 -a 1 -x {1.0 0.0 -1 ------- null}
r -t 1.45984 -s 0 -d 1 -p tcp -e 1040 -c 1 -i 33 -a 1 -x {0.0 1.0 18 ------- null}
+ -t 1.45984 -s 1 -d 0 -p ack -e 40 -c 1 -i 49 -a 1 -x {1.0 0.0 18 ------- null}
- -t 1.45984 -s 1 -d 0 -p ack -e 40 -c 1 -i 49 -a 1 -x {1.0 0.0 18 ------- null}
h -t 1.45984 -s 1 -d 0 -p ack -e 40 -c 1 -i 49 -a 1 -x {1.0 0.0 -1 ------- null}
r -t 1.46816 -s 0 -d 1 -p tcp -e 1040 -c 1 -i 34 -a 1 -x {0.0 1.0 19 ------- null}
+ -t 1.46816 -s 1 -d 0 -p ack -e 40 -c 1 -i 50 -a 1 -x {1.0 0.0 19 ------- null}
- -t 1.46816 -s 1 -d 0 -p ack -e 40 -c 1 -i 50 -a 1 -x {1.0 0.0 19 ------- null}
h -t 1.46816 -s 1 -d 0 -p ack -e 40 -c 1 -i 50 -a 1 -x {1.0 0.0 -1 ------- null}
r -t 1.47648 -s 0 -d 1 -p tcp -e 1040 -c 1 -i 35 -a 1 -x {0.0 1.0 20 ------- null}
+ -t 1.47648 -s 1 -d 0 -p ack -e 40 -c 1 -i 51 -a 1 -x {1.0 0.0 20 ------- null}
- -t 1.47648 -s 1 -d 0 -p ack -e 40 -c 1 -i 51 -a 1 -x {1.0 0.0 20 ------- null}
h -t 1.47648 -s 1 -d 0 -p ack -e 40 -c 1 -i 51 -a 1 -x {1.0 0.0 -1 ------- null}
r -t 1.4848 -s 0 -d 1 -p tcp -e 1040 -c 1 -i 36 -a 1 -x {0.0 1.0 21 ------- null}
+ -t 1.4848 -s 1 -d 0 -p ack -e 40 -c 1 -i 52 -a 1 -x {1.0 0.0 21 ------- null}
- -t 1.4848 -s 1 -d 0 -p ack -e 40 -c 1 -i 52 -a 1 -x {1.0 0.0 21 ------- null}
h -t 1.4848 -s 1 -d 0 -p ack -e 40 -c 1 -i 52 -a 1 -x {1.0 0.0 -1 ------- null}
r -t 1.49312 -s 0 -d 1 -p tcp -e 1040 -c 1 -i 37 -a 1 -x {0.0 1.0 22 ------- null}
+ -t 1.49312 -s 1 -d 0 -p ack -e 40 -c 1 -i 53 -a 1 -x {1.0 0.0 22 ------- null}
- -t 1.49312 -s 1 -d 0 -p ack -e 40 -c 1 -i 53 -a 1 -x {1.0 0.0 22 ------- null}
h -t 1.49312 -s 1 -d 0 -p ack -e 40 -c 1 -i 53 -a 1 -x {1.0 0.0 -1 ------- null}
r -t 1.50144 -s 0 -d 1 -p tcp -e 1040 -c 1 -i 38 -a 1 -x {0.0 1.0 23 ------- null}
+ -t 1.50144 -s 1 -d 0 -p ack -e 40 -c 1 -i 54 -a 1 -x {1.0 0.0 23 ------- null}
- -t 1.50144 -s 1 -d 0 -p ack -e 40 -c 1 -i 54 -a 1 -x {1.0 0.0 23 ------- null}
h -t 1.50144 -s 1 -d 0 -p ack -e 40 -c 1 -i 54 -a 1 -x {1.0 0.0 -1 ------- null}
r -t 1.50976 -s 0 -d 1 -p tcp -e 1040 -c 1 -i 39 -a 1 -x {0.0 1.0 24 ------- null}
+ -t 1.50976 -s 1 -d 0 -p ack -e 40 -c 1 -i 55 -a 1 -x {1.0 0.0 24 ------- null}
- -t 1.50976 -s 1 -d 0 -p ack -e 40 -c 1 -i 55 -a 1 -x {1.0 0.0 24 ------- null}
h -t 1.50976 -s 1 -d 0 -p ack -e 40 -c 1 -i 55 -a 1 -x {1.0 0.0 -1 ------- null}
r -t 1.51808 -s 0 -d 1 -p tcp -e 1040 -c 1 -i 40 -a 1 -x {0.0 1.0 25 ------- null}
+ -t 1.51808 -s 1 -d 0 -p ack -e 40 -c 1 -i 56 -a 1 -x {1.0 0.0 25 ------- null}
- -t 1.51808 -s 1 -d 0 -p ack -e 40 -c 1 -i 56 -a 1 -x {1.0 0.0 25 ------- null}
h -t 1.51808 -s 1 -d 0 -p ack -e 40 -c 1 -i 56 -a 1 -x {1.0 0.0 -1 ------- null}
r -t 1.5264 -s 0 -d 1 -p tcp -e 1040 -c 1 -i 41 -a 1 -x {0.0 1.0 26 ------- null}
+ -t 1.5264 -s 1 -d 0 -p ack -e 40 -c 1 -i 57 -a 1 -x {1.0 0.0 26 ------- null}
- -t 1.5264 -s 1 -d 0 -p ack -e 40 -c 1 -i 57 -a 1 -x {1.0 0.0 26 ------- null}
h -t 1.5264 -s 1 -d 0 -p ack -e 40 -c 1 -i 57 -a 1 -x {1.0 0.0 -1 ------- null}
r -t 1.53472 -s 0 -d 1 -p tcp -e 1040 -c 1 -i 42 -a 1 -x {0.0 1.0 27 ------- null}
+ -t 1.53472 -s 1 -d 0 -p ack -e 40 -c 1 -i 58 -a 1 -x {1.0 0.0 27 ------- null}
- -t 1.53472 -s 1 -d 0 -p ack -e 40 -c 1 -i 58 -a 1 -x {1.0 0.0 27 ------- null}
h -t 1.53472 -s 1 -d 0 -p ack -e 40 -c 1 -i 58 -a 1 -x {1.0 0.0 -1 ------- null}
r -t 1.5352 -s 1 -d 0 -p ack -e 40 -c 1 -i 46 -a 1 -x {1.0 0.0 15 ------- null}
+ -t 1.5352 -s 0 -d 1 -p tcp -e 1040 -c 1 -i 59 -a 1 -x {0.0 1.0 31 ------- null}
- -t 1.5352 -s 0 -d 1 -p tcp -e 1040 -c 1 -i 59 -a 1 -x {0.0 1.0 31 ------- null}
h -t 1.5352 -s 0 -d 1 -p tcp -e 1040 -c 1 -i 59 -a 1 -x {0.0 1.0 -1 ------- null}
+ -t 1.5352 -s 0 -d 1 -p tcp -e 1040 -c 1 -i 60 -a 1 -x {0.0 1.0 32 ------- null}
r -t 1.54304 -s 0 -d 1 -p tcp -e 1040 -c 1 -i 43 -a 1 -x {0.0 1.0 28 ------- null}
+ -t 1.54304 -s 1 -d 0 -p ack -e 40 -c 1 -i 61 -a 1 -x {1.0 0.0 28 ------- null}
- -t 1.54304 -s 1 -d 0 -p ack -e 40 -c 1 -i 61 -a 1 -x {1.0 0.0 28 ------- null}
h -t 1.54304 -s 1 -d 0 -p ack -e 40 -c 1 -i 61 -a 1 -x {1.0 0.0 -1 ------- null}
r -t 1.54352 -s 1 -d 0 -p ack -e 40 -c 1 -i 47 -a 1 -x {1.0 0.0 16 ------- null}
+ -t 1.54352 -s 0 -d 1 -p tcp -e 1040 -c 1 -i 62 -a 1 -x {0.0 1.0 33 ------- null}
+ -t 1.54352 -s 0 -d 1 -p tcp -e 1040 -c 1 -i 63 -a 1 -x {0.0 1.0 34 ------- null}
- -t 1.54352 -s 0 -d 1 -p tcp -e 1040 -c 1 -i 60 -a 1 -x {0.0 1.0 32 ------- null}
h -t 1.54352 -s 0 -d 1 -p tcp -e 1040 -c 1 -i 60 -a 1 -x {0.0 1.0 -1 ------- null}
r -t 1.55136 -s 0 -d 1 -p tcp -e 1040 -c 1 -i 44 -a 1 -x {0.0 1.0 29 ------- null}
+ -t 1.55136 -s 1 -d 0 -p ack -e 40 -c 1 -i 64 -a 1 -x {1.0 0.0 29 ------- null}
- -t 1.55136 -s 1 -d 0 -p ack -e 40 -c 1 -i 64 -a 1 -x {1.0 0.0 29 ------- null}
h -t 1.55136 -s 1 -d 0 -p ack -e 40 -c 1 -i 64 -a 1 -x {1.0 0.0 -1 ------- null}
r -t 1.55184 -s 1 -d 0 -p ack -e 40 -c 1 -i 48 -a 1 -x {1.0 0.0 17 ------- null}
+ -t 1.55184 -s 0 -d 1 -p tcp -e 1040 -c 1 -i 65 -a 1 -x {0.0 1.0 35 ------- null}
+ -t 1.55184 -s 0 -d 1 -p tcp -e 1040 -c 1 -i 66 -a 1 -x {0.0 1.0 36 ------- null}
- -t 1.55184 -s 0 -d 1 -p tcp -e 1040 -c 1 -i 62 -a 1 -x {0.0 1.0 33 ------- null}
h -t 1.55184 -s 0 -d 1 -p tcp -e 1040 -c 1 -i 62 -a 1 -x {0.0 1.0 -1 ------- null}
r -t 1.55968 -s 0 -d 1 -p tcp -e 1040 -c 1 -i 45 -a 1 -x {0.0 1.0 30 ------- null}
+ -t 1.55968 -s 1 -d 0 -p ack -e 40 -c 1 -i 67 -a 1 -x {1.0 0.0 30 ------- null}
- -t 1.55968 -s 1 -d 0 -p ack -e 40 -c 1 -i 67 -a 1 -x {1.0 0.0 30 ------- null}
h -t 1.55968 -s 1 -d 0 -p ack -e 40 -c 1 -i 67 -a 1 -x {1.0 0.0 -1 ------- null}
r -t 1.56016 -s 1 -d 0 -p ack -e 40 -c 1 -i 49 -a 1 -x {1.0 0.0 18 ------- null}
+ -t 1.56016 -s 0 -d 1 -p tcp -e 1040 -c 1 -i 68 -a 1 -x {0.0 1.0 37 ------- null}
+ -t 1.56016 -s 0 -d 1 -p tcp -e 1040 -c 1 -i 69 -a 1 -x {0.0 1.0 38 ------- null}
- -t 1.56016 -s 0 -d 1 -p tcp -e 1040 -c 1 -i 63 -a 1 -x {0.0 1.0 34 ------- null}
h -t 1.56016 -s 0 -d 1 -p tcp -e 1040 -c 1 -i 63 -a 1 -x {0.0 1.0 -1 ------- null}
r -t 1.56848 -s 1 -d 0 -p ack -e 40 -c 1 -i 50 -a 1 -x {1.0 0.0 19 ------- null}
+ -t 1.56848 -s 0 -d 1 -p tcp -e 1040 -c 1 -i 70 -a 1 -x {0.0 1.0 39 ------- null}
- -t 1.56848 -s 0 -d 1 -p tcp -e 1040 -c 1 -i 65 -a 1 -x {0.0 1.0 35 ------- null}
h -t 1.56848 -s 0 -d 1 -p tcp -e 1040 -c 1 -i 65 -a 1 -x {0.0 1.0 -1 ------- null}
r -t 1.5768 -s 1 -d 0 -p ack -e 40 -c 1 -i 51 -a 1 -x {1.0 0.0 20 ------- null}
+ -t 1.5768 -s 0 -d 1 -p tcp -e 1040 -c 1 -i 71 -a 1 -x {0.0 1.0 40 ------- null}
- -t 1.5768 -s 0 -d 1 -p tcp -e 1040 -c 1 -i 66 -a 1 -x {0.0 1.0 36 ------- null}
h -t 1.5768 -s 0 -d 1 -p tcp -e 1040 -c 1 -i 66 -a 1 -x {0.0 1.0 -1 ------- null}
r -t 1.58512 -s 1 -d 0 -p ack -e 40 -c 1 -i 52 -a 1 -x {1.0 0.0 21 ------- null}
+ -t 1.58512 -s 0 -d 1 -p tcp -e 1040 -c 1 -i 72 -a 1 -x {0.0 1.0 41 ------- null}
- -t 1.58512 -s 0 -d 1 -p tcp -e 1040 -c 1 -i 68 -a 1 -x {0.0 1.0 37 ------- null}
h -t 1.58512 -s 0 -d 1 -p tcp -e 1040 -c 1 -i 68 -a 1 -x {0.0 1.0 -1 ------- null}
r -t 1.59344 -s 1 -d 0 -p ack -e 40 -c 1 -i 53 -a 1 -x {1.0 0.0 22 ------- null}
+ -t 1.59344 -s 0 -d 1 -p tcp -e 1040 -c 1 -i 73 -a 1 -x {0.0 1.0 42 ------- null}
- -t 1.59344 -s 0 -d 1 -p tcp -e 1040 -c 1 -i 69 -a 1 -x {0.0 1.0 38 ------- null}
h -t 1.59344 -s 0 -d 1 -p tcp -e 1040 -c 1 -i 69 -a 1 -x {0.0 1.0 -1 ------- null}
r -t 1.60176 -s 1 -d 0 -p ack -e 40 -c 1 -i 54 -a 1 -x {1.0 0.0 23 ------- null}
+ -t 1.60176 -s 0 -d 1 -p tcp -e 1040 -c 1 -i 74 -a 1 -x {0.0 1.0 43 ------- null}
- -t 1.60176 -s 0 -d 1 -p tcp -e 1040 -c 1 -i 70 -a 1 -x {0.0 1.0 39 ------- null}
h -t 1.60176 -s 0 -d 1 -p tcp -e 1040 -c 1 -i 70 -a 1 -x {0.0 1.0 -1 ------- null}
r -t 1.61008 -s 1 -d 0 -p ack -e 40 -c 1 -i 55 -a 1 -x {1.0 0.0 24 ------- null}
+ -t 1.61008 -s 0 -d 1 -p tcp -e 1040 -c 1 -i 75 -a 1 -x {0.0 1.0 44 ------- null}
- -t 1.61008 -s 0 -d 1 -p tcp -e 1040 -c 1 -i 71 -a 1 -x {0.0 1.0 40 ------- null}
h -t 1.61008 -s 0 -d 1 -p tcp -e 1040 -c 1 -i 71 -a 1 -x {0.0 1.0 -1 ------- null}
r -t 1.6184 -s 1 -d 0 -p ack -e 40 -c 1 -i 56 -a 1 -x {1.0 0.0 25 ------- null}
+ -t 1.6184 -s 0 -d 1 -p tcp -e 1040 -c 1 -i 76 -a 1 -x {0.0 1.0 45 ------- null}
- -t 1.6184 -s 0 -d 1 -p tcp -e 1040 -c 1 -i 72 -a 1 -x {0.0 1.0 41 ------- null}
h -t 1.6184 -s 0 -d 1 -p tcp -e 1040 -c 1 -i 72 -a 1 -x {0.0 1.0 -1 ------- null}
r -t 1.62672 -s 1 -d 0 -p ack -e 40 -c 1 -i 57 -a 1 -x {1.0 0.0 26 ------- null}
+ -t 1.62672 -s 0 -d 1 -p tcp -e 1040 -c 1 -i 77 -a 1 -x {0.0 1.0 46 ------- null}
- -t 1.62672 -s 0 -d 1 -p tcp -e 1040 -c 1 -i 73 -a 1 -x {0.0 1.0 42 ------- null}
h -t 1.62672 -s 0 -d 1 -p tcp -e 1040 -c 1 -i 73 -a 1 -x {0.0 1.0 -1 ------- null}
r -t 1.63504 -s 1 -d 0 -p ack -e 40 -c 1 -i 58 -a 1 -x {1.0 0.0 27 ------- null}
+ -t 1.63504 -s 0 -d 1 -p tcp -e 1040 -c 1 -i 78 -a 1 -x {0.0 1.0 47 ------- null}
- -t 1.63504 -s 0 -d 1 -p tcp -e 1040 -c 1 -i 74 -a 1 -x {0.0 1.0 43 ------- null}
h -t 1.63504 -s 0 -d 1 -p tcp -e 1040 -c 1 -i 74 -a 1 -x {0.0 1.0 -1 ------- null}
r -t 1.64336 -s 1 -d 0 -p ack -e 40 -c 1 -i 61 -a 1 -x {1.0 0.0 28 ------- null}
+ -t 1.64336 -s 0 -d 1 -p tcp -e 1040 -c 1 -i 79 -a 1 -x {0.0 1.0 48 ------- null}
- -t 1.64336 -s 0 -d 1 -p tcp -e 1040 -c 1 -i 75 -a 1 -x {0.0 1.0 44 ------- null}
h -t 1.64336 -s 0 -d 1 -p tcp -e 1040 -c 1 -i 75 -a 1 -x {0.0 1.0 -1 ------- null}
r -t 1.64352 -s 0 -d 1 -p tcp -e 1040 -c 1 -i 59 -a 1 -x {0.0 1.0 31 ------- null}
+ -t 1.64352 -s 1 -d 0 -p ack -e 40 -c 1 -i 80 -a 1 -x {1.0 0.0 31 ------- null}
- -t 1.64352 -s 1 -d 0 -p ack -e 40 -c 1 -i 80 -a 1 -x {1.0 0.0 31 ------- null}
h -t 1.64352 -s 1 -d 0 -p ack -e 40 -c 1 -i 80 -a 1 -x {1.0 0.0 -1 ------- null}
r -t 1.65168 -s 1 -d 0 -p ack -e 40 -c 1 -i 64 -a 1 -x {1.0 0.0 29 ------- null}
+ -t 1.65168 -s 0 -d 1 -p tcp -e 1040 -c 1 -i 81 -a 1 -x {0.0 1.0 49 ------- null}
- -t 1.65168 -s 0 -d 1 -p tcp -e 1040 -c 1 -i 76 -a 1 -x {0.0 1.0 45 ------- null}
h -t 1.65168 -s 0 -d 1 -p tcp -e 1040 -c 1 -i 76 -a 1 -x {0.0 1.0 -1 ------- null}
r -t 1.65184 -s 0 -d 1 -p tcp -e 1040 -c 1 -i 60 -a 1 -x {0.0 1.0 32 ------- null}
+ -t 1.65184 -s 1 -d 0 -p ack -e 40 -c 1 -i 82 -a 1 -x {1.0 0.0 32 ------- null}
- -t 1.65184 -s 1 -d 0 -p ack -e 40 -c 1 -i 82 -a 1 -x {1.0 0.0 32 ------- null}
h -t 1.65184 -s 1 -d 0 -p ack -e 40 -c 1 -i 82 -a 1 -x {1.0 0.0 -1 ------- null}
r -t 1.66 -s 1 -d 0 -p ack -e 40 -c 1 -i 67 -a 1 -x {1.0 0.0 30 ------- null}
+ -t 1.66 -s 0 -d 1 -p tcp -e 1040 -c 1 -i 83 -a 1 -x {0.0 1.0 50 ------- null}
- -t 1.66 -s 0 -d 1 -p tcp -e 1040 -c 1 -i 77 -a 1 -x {0.0 1.0 46 ------- null}
h -t 1.66 -s 0 -d 1 -p tcp -e 1040 -c 1 -i 77 -a 1 -x {0.0 1.0 -1 ------- null}
r -t 1.66016 -s 0 -d 1 -p tcp -e 1040 -c 1 -i 62 -a 1 -x {0.0 1.0 33 ------- null}
+ -t 1.66016 -s 1 -d 0 -p ack -e 40 -c 1 -i 84 -a 1 -x {1.0 0.0 33 ------- null}
- -t 1.66016 -s 1 -d 0 -p ack -e 40 -c 1 -i 84 -a 1 -x {1.0 0.0 33 ------- null}
h -t 1.66016 -s 1 -d 0 -p ack -e 40 -c 1 -i 84 -a 1 -x {1.0 0.0 -1 ------- null}
- -t 1.66832 -s 0 -d 1 -p tcp -e 1040 -c 1 -i 78 -a 1 -x {0.0 1.0 47 ------- null}
h -t 1.66832 -s 0 -d 1 -p tcp -e 1040 -c 1 -i 78 -a 1 -x {0.0 1.0 -1 ------- null}
r -t 1.66848 -s 0 -d 1 -p tcp -e 1040 -c 1 -i 63 -a 1 -x {0.0 1.0 34 ------- null}
+ -t 1.66848 -s 1 -d 0 -p ack -e 40 -c 1 -i 85 -a 1 -x {1.0 0.0 34 ------- null}
- -t 1.66848 -s 1 -d 0 -p ack -e 40 -c 1 -i 85 -a 1 -x {1.0 0.0 34 ------- null}
h -t 1.66848 -s 1 -d 0 -p ack -e 40 -c 1 -i 85 -a 1 -x {1.0 0.0 -1 ------- null}
- -t 1.67664 -s 0 -d 1 -p tcp -e 1040 -c 1 -i 79 -a 1 -x {0.0 1.0 48 ------- null}
h -t 1.67664 -s 0 -d 1 -p tcp -e 1040 -c 1 -i 79 -a 1 -x {0.0 1.0 -1 ------- null}
r -t 1.6768 -s 0 -d 1 -p tcp -e 1040 -c 1 -i 65 -a 1 -x {0.0 1.0 35 ------- null}
+ -t 1.6768 -s 1 -d 0 -p ack -e 40 -c 1 -i 86 -a 1 -x {1.0 0.0 35 ------- null}
- -t 1.6768 -s 1 -d 0 -p ack -e 40 -c 1 -i 86 -a 1 -x {1.0 0.0 35 ------- null}
h -t 1.6768 -s 1 -d 0 -p ack -e 40 -c 1 -i 86 -a 1 -x {1.0 0.0 -1 ------- null}
- -t 1.68496 -s 0 -d 1 -p tcp -e 1040 -c 1 -i 81 -a 1 -x {0.0 1.0 49 ------- null}
h -t 1.68496 -s 0 -d 1 -p tcp -e 1040 -c 1 -i 81 -a 1 -x {0.0 1.0 -1 ------- null}
r -t 1.68512 -s 0 -d 1 -p tcp -e 1040 -c 1 -i 66 -a 1 -x {0.0 1.0 36 ------- null}
+ -t 1.68512 -s 1 -d 0 -p ack -e 40 -c 1 -i 87 -a 1 -x {1.0 0.0 36 ------- null}
- -t 1.68512 -s 1 -d 0 -p ack -e 40 -c 1 -i 87 -a 1 -x {1.0 0.0 36 ------- null}
h -t 1.68512 -s 1 -d 0 -p ack -e 40 -c 1 -i 87 -a 1 -x {1.0 0.0 -1 ------- null}
- -t 1.69328 -s 0 -d 1 -p tcp -e 1040 -c 1 -i 83 -a 1 -x {0.0 1.0 50 ------- null}
h -t 1.69328 -s 0 -d 1 -p tcp -e 1040 -c 1 -i 83 -a 1 -x {0.0 1.0 -1 ------- null}
r -t 1.69344 -s 0 -d 1 -p tcp -e 1040 -c 1 -i 68 -a 1 -x {0.0 1.0 37 ------- null}
+ -t 1.69344 -s 1 -d 0 -p ack -e 40 -c 1 -i 88 -a 1 -x {1.0 0.0 37 ------- null}
- -t 1.69344 -s 1 -d 0 -p ack -e 40 -c 1 -i 88 -a 1 -x {1.0 0.0 37 ------- null}
h -t 1.69344 -s 1 -d 0 -p ack -e 40 -c 1 -i 88 -a 1 -x {1.0 0.0 -1 ------- null}
r -t 1.70176 -s 0 -d 1 -p tcp -e 1040 -c 1 -i 69 -a 1 -x {0.0 1.0 38 ------- null}
+ -t 1.70176 -s 1 -d 0 -p ack -e 40 -c 1 -i 89 -a 1 -x {1.0 0.0 38 ------- null}
- -t 1.70176 -s 1 -d 0 -p ack -e 40 -c 1 -i 89 -a 1 -x {1.0 0.0 38 ------- null}
h -t 1.70176 -s 1 -d 0 -p ack -e 40 -c 1 -i 89 -a 1 -x {1.0 0.0 -1 ------- null}
r -t 1.71008 -s 0 -d 1 -p tcp -e 1040 -c 1 -i 70 -a 1 -x {0.0 1.0 39 ------- null}
+ -t 1.71008 -s 1 -d 0 -p ack -e 40 -c 1 -i 90 -a 1 -x {1.0 0.0 39 ------- null}
- -t 1.71008 -s 1 -d 0 -p ack -e 40 -c 1 -i 90 -a 1 -x {1.0 0.0 39 ------- null}
h -t 1.71008 -s 1 -d 0 -p ack -e 40 -c 1 -i 90 -a 1 -x {1.0 0.0 -1 ------- null}
r -t 1.7184 -s 0 -d 1 -p tcp -e 1040 -c 1 -i 71 -a 1 -x {0.0 1.0 40 ------- null}
+ -t 1.7184 -s 1 -d 0 -p ack -e 40 -c 1 -i 91 -a 1 -x {1.0 0.0 40 ------- null}
- -t 1.7184 -s 1 -d 0 -p ack -e 40 -c 1 -i 91 -a 1 -x {1.0 0.0 40 ------- null}
h -t 1.7184 -s 1 -d 0 -p ack -e 40 -c 1 -i 91 -a 1 -x {1.0 0.0 -1 ------- null}
r -t 1.72672 -s 0 -d 1 -p tcp -e 1040 -c 1 -i 72 -a 1 -x {0.0 1.0 41 ------- null}
+ -t 1.72672 -s 1 -d 0 -p ack -e 40 -c 1 -i 92 -a 1 -x {1.0 0.0 41 ------- null}
- -t 1.72672 -s 1 -d 0 -p ack -e 40 -c 1 -i 92 -a 1 -x {1.0 0.0 41 ------- null}
h -t 1.72672 -s 1 -d 0 -p ack -e 40 -c 1 -i 92 -a 1 -x {1.0 0.0 -1 ------- null}
r -t 1.73504 -s 0 -d 1 -p tcp -e 1040 -c 1 -i 73 -a 1 -x {0.0 1.0 42 ------- null}
+ -t 1.73504 -s 1 -d 0 -p ack -e 40 -c 1 -i 93 -a 1 -x {1.0 0.0 42 ------- null}
- -t 1.73504 -s 1 -d 0 -p ack -e 40 -c 1 -i 93 -a 1 -x {1.0 0.0 42 ------- null}
h -t 1.73504 -s 1 -d 0 -p ack -e 40 -c 1 -i 93 -a 1 -x {1.0 0.0 -1 ------- null}
r -t 1.74336 -s 0 -d 1 -p tcp -e 1040 -c 1 -i 74 -a 1 -x {0.0 1.0 43 ------- null}
+ -t 1.74336 -s 1 -d 0 -p ack -e 40 -c 1 -i 94 -a 1 -x {1.0 0.0 43 ------- null}
- -t 1.74336 -s 1 -d 0 -p ack -e 40 -c 1 -i 94 -a 1 -x {1.0 0.0 43 ------- null}
h -t 1.74336 -s 1 -d 0 -p ack -e 40 -c 1 -i 94 -a 1 -x {1.0 0.0 -1 ------- null}
r -t 1.74384 -s 1 -d 0 -p ack -e 40 -c 1 -i 80 -a 1 -x {1.0 0.0 31 ------- null}
+ -t 1.74384 -s 0 -d 1 -p tcp -e 1040 -c 1 -i 95 -a 1 -x {0.0 1.0 51 ------- null}
- -t 1.74384 -s 0 -d 1 -p tcp -e 1040 -c 1 -i 95 -a 1 -x {0.0 1.0 51 ------- null}
h -t 1.74384 -s 0 -d 1 -p tcp -e 1040 -c 1 -i 95 -a 1 -x {0.0 1.0 -1 ------- null}