V -t * -v 1.0a5 -a 0
A -t * -n 1 -p 0 -o 0x7fffffff -c 30 -a 1
A -t * -h 1 -m 1073741823 -s 0
c -t * -i 1 -n Blue
n -t * -a 0 -s 0 -S UP -v circle -c black -i black
n -t * -a 1 -s 1 -S UP -v circle -c black -i black
l -t * -s 0 -d 1 -S UP -r 1000000 -D 0.10000000000000001 -c black -o right
+ -t 1 -s 0 -d 1 -p tcp -e 40 -c 1 -i 0 -a 1 -x {0.0 1.0 0 ------- null}
- -t 1 -s 0 -d 1 -p tcp -e 40 -c 1 -i 0 -a 1 -x {0.0 1.0 0 ------- null}
h -t 1 -s 0 -d 1 -p tcp -e 40 -c 1 -i 0 -a 1 -x {0.0 1.0 -1 ------- null}
r -t 1.10032 -s 0 -d 1 -p tcp -e 40 -c 1 -i 0 -a 1 -x {0.0 1.0 0 ------- null}
+ -t 1.10032 -s 1 -d 0 -p ack -e 40 -c 1 -i 1 -a 1 -x {1.0 0.0 0 ------- null}
- -t 1.10032 -s 1 -d 0 -p ack -e 40 -c 1 -i 1 -a 1 -x {1.0 0.0 0 ------- null}
h -t 1.10032 -s 1 -d 0 -p ack -e 40 -c 1 -i 1 -a 1 -x {1.0 0.0 -1 ------- null}
r -t 1.20064 -s 1 -d 0 -p ack -e 40 -c 1 -i 1 -a 1 -x {1.0 0.0 0 ------- null}
+ -t 1.20064 -s 0 -d 1 -p tcp -e 1040 -c 1 -i 2 -a 1 -x {0.0 1.0 1 ------- null}
- -t 1.20064 -s 0 -d 1 -p tcp -e 1040 -c 1 -i 2 -a 1 -x {0.0 1.0 1 ------- null}
h -t 1.20064 -s 0 -d 1 -p tcp -e 1040 -c 1 -i 2 -a 1 -x {0.0 1.0 -1 ------- null}
+ -t 1.20064 -s 0 -d 1 -p tcp -e 1040 -c 1 -i 3 -a 1 -x {0.0 1.0 2 ------- null}
- -t 1.20896 -s 0 -d 1 -p tcp -e 1040 -c 1 -i 3 -a 1 -x {0.0 1.0 2 ------- null}
h -t 1.20896 -s 0 -d 1 -p tcp -e 1040 -c 1 -i 3 -a 1 -x {0.0 1.0 -1 ------- null}
r -t 1.30896 -s 0 -d 1 -p tcp -e 1040 -c 1 -i 2 -a 1 -x {0.0 1.0 1 ------- null}
+ -t 1.30896 -s 1 -d 0 -p ack -e 40 -c 1 -i 4 -a 1 -x {1.0 0.0 1 ------- null}
- -t 1.30896 -s 1 -d 0 -p ack -e 40 -c 1 -i 4 -a 1 -x {1.0 0.0 1 ------- null}
h -t 1.30896 -s 1 -d 0 -p ack -e 40 -c 1 -i 4 -a 1 -x {1.0 0.0 -1 ------- null}
r -t 1.31728 -s 0 -d 1 -p tcp -e 1040 -c 1 -i 3 -a 1 -x {0.0 1.0 2 ------- null}
+ -t 1.31728 -s 1 -d 0 -p ack -e 40 -c 1 -i 5 -a 1 -x {1.0 0.0 2 ------- null}
- -t 1.31728 -s 1 -d 0 -p ack -e 40 -c 1 -i 5 -a 1 -x {1.0 0.0 2 ------- null}
h -t 1.31728 -s 1 -d 0 -p ack -e 40 -c 1 -i 5 -a 1 -x {1.0 0.0 -1 ------- null}
r -t 1.40928 -s 1 -d 0 -p ack -e 40 -c 1 -i 4 -a 1 -x {1.0 0.0 1 ------- null}
+ -t 1.40928 -s 0 -d 1 -p tcp -e 1040 -c 1 -i 6 -a 1 -x {0.0 1.0 3 ------- null}
- -t 1.40928 -s 0 -d 1 -p tcp -e 1040 -c 1 -i 6 -a 1 -x {0.0 1.0 3 ------- null}
h -t 1.40928 -s 0 -d 1 -p tcp -e 1040 -c 1 -i 6 -a 1 -x {0.0 1.0 -1 ------- null}
+ -t 1.40928 -s 0 -d 1 -p tcp -e 1040 -c 1 -i 7 -a 1 -x {0.0 1.0 4 ------- null}
r -t 1.4176 -s 1 -d 0 -p ack -e 40 -c 1 -i 5 -a 1 -x {1.0 0.0 2 ------- null}
+ -t 1.4176 -s 0 -d 1 -p tcp -e 1040 -c 1 -i 8 -a 1 -x {0.0 1.0 5 ------- null}
+ -t 1.4176 -s 0 -d 1 -p tcp -e 1040 -c 1 -i 9 -a 1 -x {0.0 1.0 6 ------- null}
- -t 1.4176 -s 0 -d 1 -p tcp -e 1040 -c 1 -i 7 -a 1 -x {0.0 1.0 4 ------- null}
h -t 1.4176 -s 0 -d 1 -p tcp -e 1040 -c 1 -i 7 -a 1 -x {0.0 1.0 -1 ------- null}
- -t 1.42592 -s 0 -d 1 -p tcp -e 1040 -c 1 -i 8 -a 1 -x {0.0 1.0 5 ------- null}
h -t 1.42592 -s 0 -d 1 -p tcp -e 1040 -c 1 -i 8 -a 1 -x {0.0 1.0 -1 ------- null}
- -t 1.43424 -s 0 -d 1 -p tcp -e 1040 -c 1 -i 9 -a 1 -x {0.0 1.0 6 ------- null}
h -t 1.43424 -s 0 -d 1 -p tcp -e 1040 -c 1 -i 9 -a 1 -x {0.0 1.0 -1 ------- null}
r -t 1.5176 -s 0 -d 1 -p tcp -e 1040 -c 1 -i 6 -a 1 -x {0.0 1.0 3 ------- null}
+ -t 1.5176 -s 1 -d 0 -p ack -e 40 -c 1 -i 10 -a 1 -x {1.0 0.0 3 ------- null}
- -t 1.5176 -s 1 -d 0 -p ack -e 40 -c 1 -i 10 -a 1 -x {1.0 0.0 3 ------- null}
h -t 1.5176 -s 1 -d 0 -p ack -e 40 -c 1 -i 10 -a 1 -x {1.0 0.0 -1 ------- null}
r -t 1.52592 -s 0 -d 1 -p tcp -e 1040 -c 1 -i 7 -a 1 -x {0.0 1.0 4 ------- null}
+ -t 1.52592 -s 1 -d 0 -p ack -e 40 -c 1 -i 11 -a 1 -x {1.0 0.0 4 ------- null}
- -t 1.52592 -s 1 -d 0 -p ack -e 40 -c 1 -i 11 -a 1 -x {1.0 0.0 4 ------- null}
h -t 1.52592 -s 1 -d 0 -p ack -e 40 -c 1 -i 11 -a 1 -x {1.0 0.0 -1 ------- null}
r -t 1.53424 -s 0 -d 1 -p tcp -e 1040 -c 1 -i 8 -a 1 -x {0.0 1.0 5 ------- null}
+ -t 1.53424 -s 1 -d 0 -p ack -e 40 -c 1 -i 12 -a 1 -x {1.0 0.0 5 ------- null}
- -t 1.53424 -s 1 -d 0 -p ack -e 40 -c 1 -i 12 -a 1 -x {1.0 0.0 5 ------- null}
h -t 1.53424 -s 1 -d 0 -p ack -e 40 -c 1 -i 12 -a 1 -x {1.0 0.0 -1 ------- null}
r -t 1.54256 -s 0 -d 1 -p tcp -e 1040 -c 1 -i 9 -a 1 -x {0.0 1.0 6 ------- null}
+ -t 1.54256 -s 1 -d 0 -p ack -e 40 -c 1 -i 13 -a 1 -x {1.0 0.0 6 ------- null}
- -t 1.54256 -s 1 -d 0 -p ack -e 40 -c 1 -i 13 -a 1 -x {1.0 0.0 6 ------- null}
h -t 1.54256 -s 1 -d 0 -p ack -e 40 -c 1 -i 13 -a 1 -x {1.0 0.0 -1 ------- null}
r -t 1.61792 -s 1 -d 0 -p ack -e 40 -c 1 -i 10 -a 1 -x {1.0 0.0 3 ------- null}
+ -t 1.61792 -s 0 -d 1 -p tcp -e 1040 -c 1 -i 14 -a 1 -x {0.0 1.0 7 ------- null}
- -t 1.61792 -s 0 -d 1 -p tcp -e 1040 -c 1 -i 14 -a 1 -x {0.0 1.0 7 ------- null}
h -t 1.61792 -s 0 -d 1 -p tcp -e 1040 -c 1 -i 14 -a 1 -x {0.0 1.0 -1 ------- null}
+ -t 1.61792 -s 0 -d 1 -p tcp -e 1040 -c 1 -i 15 -a 1 -x {0.0 1.0 8 ------- null}
r -t 1.62624 -s 1 -d 0 -p ack -e 40 -c 1 -i 11 -a 1 -x {1.0 0.0 4 ------- null}
+ -t 1.62624 -s 0 -d 1 -p tcp -e 1040 -c 1 -i 16 -a 1 -x {0.0 1.0 9 ------- null}
+ -t 1.62624 -s 0 -d 1 -p tcp -e 1040 -c 1 -i 17 -a 1 -x {0.0 1.0 10 ------- null}
- -t 1.62624 -s 0 -d 1 -p tcp -e 1040 -c 1 -i 15 -a 1 -x {0.0 1.0 8 ------- null}
h -t 1.62624 -s 0 -d 1 -p tcp -e 1040 -c 1 -i 15 -a 1 -x {0.0 1.0 -1 ------- null}
r -t 1.63456 -s 1 -d 0 -p ack -e 40 -c 1 -i 12 -a 1 -x {1.0 0.0 5 ------- null}
+ -t 1.63456 -s 0 -d 1 -p tcp -e 1040 -c 1 -i 18 -a 1 -x {0.0 1.0 11 ------- null}
+ -t 1.63456 -s 0 -d 1 -p tcp -e 1040 -c 1 -i 19 -a 1 -x {0.0 1.0 12 ------- null}
- -t 1.63456 -s 0 -d 1 -p tcp -e 1040 -c 1 -i 16 -a 1 -x {0.0 1.0 9 ------- null}
h -t 1.63456 -s 0 -d 1 -p tcp -e 1040 -c 1 -i 16 -a 1 -x {0.0 1.0 -1 ------- null}
r -t 1.64288 -s 1 -d 0 -p ack -e 40 -c 1 -i 13 -a 1 -x {1.0 0.0 6 ------- null}
+ -t 1.64288 -s 0 -d 1 -p tcp -e 1040 -c 1 -i 20 -a 1 -x {0.0 1.0 13 ------- null}
+ -t 1.64288 -s 0 -d 1 -p tcp -e 1040 -c 1 -i 21 -a 1 -x {0.0 1.0 14 ------- null}
- -t 1.64288 -s 0 -d 1 -p tcp -e 1040 -c 1 -i 17 -a 1 -x {0.0 1.0 10 ------- null}
h -t 1.64288 -s 0 -d 1 -p tcp -e 1040 -c 1 -i 17 -a 1 -x {0.0 1.0 -1 ------- null}
- -t 1.6512 -s 0 -d 1 -p tcp -e 1040 -c 1 -i 18 -a 1 -x {0.0 1.0 11 ------- null}
h -t 1.6512 -s 0 -d 1 -p tcp -e 1040 -c 1 -i 18 -a 1 -x {0.0 1.0 -1 ------- null}
- -t 1.65952 -s 0 -d 1 -p tcp -e 1040 -c 1 -i 19 -a 1 -x {0.0 1.0 12 ------- null}
h -t 1.65952 -s 0 -d 1 -p tcp -e 1040 -c 1 -i 19 -a 1 -x {0.0 1.0 -1 ------- null}
- -t 1.66784 -s 0 -d 1 -p tcp -e 1040 -c 1 -i 20 -a 1 -x {0.0 1.0 13 ------- null}
h -t 1.66784 -s 0 -d 1 -p tcp -e 1040 -c 1 -i 20 -a 1 -x {0.0 1.0 -1 ------- null}
- -t 1.67616 -s 0 -d 1 -p tcp -e 1040 -c 1 -i 21 -a 1 -x {0.0 1.0 14 ------- null}
h -t 1.67616 -s 0 -d 1 -p tcp -e 1040 -c 1 -i 21 -a 1 -x {0.0 1.0 -1 ------- null}
r -t 1.72624 -s 0 -d 1 -p tcp -e 1040 -c 1 -i 14 -a 1 -x {0.0 1.0 7 ------- null}
+ -t 1.72624 -s 1 -d 0 -p ack -e 40 -c 1 -i 22 -a 1 -x {1.0 0.0 7 ------- null}
- -t 1.72624 -s 1 -d 0 -p ack -e 40 -c 1 -i 22 -a 1 -x {1.0 0.0 7 ------- null}
h -t 1.72624 -s 1 -d 0 -p ack -e 40 -c 1 -i 22 -a 1 -x {1.0 0.0 -1 ------- null}
r -t 1.73456 -s 0 -d 1 -p tcp -e 1040 -c 1 -i 15 -a 1 -x {0.0 1.0 8 ------- null}
+ -t 1.73456 -s 1 -d 0 -p ack -e 40 -c 1 -i 23 -a 1 -x {1.0 0.0 8 ------- null}
- -t 1.73456 -s 1 -d 0 -p ack -e 40 -c 1 -i 23 -a 1 -x {1.0 0.0 8 ------- null}
h -t 1.73456 -s 1 -d 0 -p ack -e 40 -c 1 -i 23 -a 1 -x {1.0 0.0 -1 ------- null}
r -t 1.74288 -s 0 -d 1 -p tcp -e 1040 -c 1 -i 16 -a 1 -x {0.0 1.0 9 ------- null}
+ -t 1.74288 -s 1 -d 0 -p ack -e 40 -c 1 -i 24 -a 1 -x {1.0 0.0 9 ------- null}
- -t 1.74288 -s 1 -d 0 -p ack -e 40 -c 1 -i 24 -a 1 -x {1.0 0.0 9 ------- null}
h -t 1.74288 -s 1 -d 0 -p ack -e 40 -c 1 -i 24 -a 1 -x {1.0 0.0 -1 ------- null}
r -t 1.7512 -s 0 -d 1 -p tcp -e 1040 -c 1 -i 17 -a 1 -x {0.0 1.0 10 ------- null}
+ -t 1.7512 -s 1 -d 0 -p ack -e 40 -c 1 -i 25 -a 1 -x {1.0 0.0 10 ------- null}
- -t 1.7512 -s 1 -d 0 -p ack -e 40 -c 1 -i 25 -a 1 -x {1.0 0.0 10 ------- null}
h -t 1.7512 -s 1 -d 0 -p ack -e 40 -c 1 -i 25 -a 1 -x {1.0 0.0 -1 ------- null}
r -t 1.75952 -s 0 -d 1 -p tcp -e 1040 -c 1 -i 18 -a 1 -x {0.0 1.0 11 ------- null}
+ -t 1.75952 -s 1 -d 0 -p ack -e 40 -c 1 -i 26 -a 1 -x {1.0 0.0 11 ------- null}
- -t 1.75952 -s 1 -d 0 -p ack -e 40 -c 1 -i 26 -a 1 -x {1.0 0.0 11 ------- null}
h -t 1.75952 -s 1 -d 0 -p ack -e 40 -c 1 -i 26 -a 1 -x {1.0 0.0 -1 ------- null}
r -t 1.76784 -s 0 -d 1 -p tcp -e 1040 -c 1 -i 19 -a 1 -x {0.0 1.0 12 ------- null}
+ -t 1.76784 -s 1 -d 0 -p ack -e 40 -c 1 -i 27 -a 1 -x {1.0 0.0 12 ------- null}
- -t 1.76784 -s 1 -d 0 -p ack -e 40 -c 1 -i 27 -a 1 -x {1.0 0.0 12 ------- null}
h -t 1.76784 -s 1 -d 0 -p ack -e 40 -c 1 -i 27 -a 1 -x {1.0 0.0 -1 ------- null}
r -t 1.77616 -s 0 -d 1 -p tcp -e 1040 -c 1 -i 20 -a 1 -x {0.0 1.0 13 ------- null}
+ -t 1.77616 -s 1 -d 0 -p ack -e 40 -c 1 -i 28 -a 1 -x {1.0 0.0 13 ------- null}
- -t 1.77616 -s 1 -d 0 -p ack -e 40 -c 1 -i 28 -a 1 -x {1.0 0.0 13 ------- null}
h -t 1.77616 -s 1 -d 0 -p ack -e 40 -c 1 -i 28 -a 1 -x {1.0 0.0 -1 ------- null}
r -t 1.78448 -s 0 -d 1 -p tcp -e 1040 -c 1 -i 21 -a 1 -x {0.0 1.0 14 ------- null}
+ -t 1.78448 -s 1 -d 0 -p ack -e 40 -c 1 -i 29 -a 1 -x {1.0 0.0 14 ------- null}
- -t 1.78448 -s 1 -d 0 -p ack -e 40 -c 1 -i 29 -a 1 -x {1.0 0.0 14 ------- null}
h -t 1.78448 -s 1 -d 0 -p ack -e 40 -c 1 -i 29 -a 1 -x {1.0 0.0 -1 ------- null}
r -t 1.82656 -s 1 -d 0 -p ack -e 40 -c 1 -i 22 -a 1 -x {1.0 0.0 7 ------- null}
+ -t 1.82656 -s 0 -d 1 -p tcp -e 1040 -c 1 -i 30 -a 1 -x {0.0 1.0 15 ------- null}
- -t 1.82656 -s 0 -d 1 -p tcp -e 1040 -c 1 -i 30 -a 1 -x {0.0 1.0 15 ------- null}
h -t 1.82656 -s 0 -d 1 -p tcp -e 1040 -c 1 -i 30 -a 1 -x {0.0 1.0 -1 ------- null}
+ -t 1.82656 -s 0 -d 1 -p tcp -e 1040 -c 1 -i 31 -a 1 -x {0.0 1.0 16 ------- null}
r -t 1.83488 -s 1 -d 0 -p ack -e 40 -c 1 -i 23 -a 1 -x {1.0 0.0 8 ------- null}
+ -t 1.83488 -s 0 -d 1 -p tcp -e 1040 -c 1 -i 32 -a 1 -x {0.0 1.0 17 ------- null}
+ -t 1.83488 -s 0 -d 1 -p tcp -e 1040 -c 1 -i 33 -a 1 -x {0.0 1.0 18 ------- null}
- -t 1.83488 -s 0 -d 1 -p tcp -e 1040 -c 1 -i 31 -a 1 -x {0.0 1.0 16 ------- null}
h -t 1.83488 -s 0 -d 1 -p tcp -e 1040 -c 1 -i 31 -a 1 -x {0.0 1.0 -1 ------- null}
r -t 1.8432 -s 1 -d 0 -p ack -e 40 -c 1 -i 24 -a 1 -x {1.0 0.0 9 ------- null}
+ -t 1.8432 -s 0 -d 1 -p tcp -e 1040 -c 1 -i 34 -a 1 -x {0.0 1.0 19 ------- null}
+ -t 1.8432 -s 0 -d 1 -p tcp -e 1040 -c 1 -i 35 -a 1 -x {0.0 1.0 20 ------- null}
- -t 1.8432 -s 0 -d 1 -p tcp -e 1040 -c 1 -i 32 -a 1 -x {0.0 1.0 17 ------- null}
h -t 1.8432 -s 0 -d 1 -p tcp -e 1040 -c 1 -i 32 -a 1 -x {0.0 1.0 -1 ------- null}
r -t 1.85152 -s 1 -d 0 -p ack -e 40 -c 1 -i 25 -a 1 -x {1.0 0.0 10 ------- null}
+ -t 1.85152 -s 0 -d 1 -p tcp -e 1040 -c 1 -i 36 -a 1 -x {0.0 1.0 21 ------- null}
+ -t 1.85152 -s 0 -d 1 -p tcp -e 1040 -c 1 -i 37 -a 1 -x {0.0 1.0 22 ------- null}
- -t 1.85152 -s 0 -d 1 -p tcp -e 1040 -c 1 -i 33 -a 1 -x {0.0 1.0 18 ------- null}
h -t 1.85152 -s 0 -d 1 -p tcp -e 1040 -c 1 -i 33 -a 1 -x {0.0 1.0 -1 ------- null}
r -t 1.85984 -s 1 -d 0 -p ack -e 40 -c 1 -i 26 -a 1 -x {1.0 0.0 11 ------- null}
+ -t 1.85984 -s 0 -d 1 -p tcp -e 1040 -c 1 -i 38 -a 1 -x {0.0 1.0 23 ------- null}
+ -t 1.85984 -s 0 -d 1 -p tcp -e 1040 -c 1 -i 39 -a 1 -x {0.0 1.0 24 ------- null}
- -t 1.85984 -s 0 -d 1 -p tcp -e 1040 -c 1 -i 34 -a 1 -x {0.0 1.0 19 ------- null}
h -t 1.85984 -s 0 -d 1 -p tcp -e 1040 -c 1 -i 34 -a 1 -x {0.0 1.0 -1 ------- null}
r -t 1.86816 -s 1 -d 0 -p ack -e 40 -c 1 -i 27 -a 1 -x {1.0 0.0 12 ------- null}
+ -t 1.86816 -s 0 -d 1 -p tcp -e 1040 -c 1 -i 40 -a 1 -x {0.0 1.0 25 ------- null}
+ -t 1.86816 -s 0 -d 1 -p tcp -e 1040 -c 1 -i 41 -a 1 -x {0.0 1.0 26 ------- null}
- -t 1.86816 -s 0 -d 1 -p tcp -e 1040 -c 1 -i 35 -a 1 -x {0.0 1.0 20 ------- null}
h -t 1.86816 -s 0 -d 1 -p tcp -e 1040 -c 1 -i 35 -a 1 -x {0.0 1.0 -1 ------- null}
r -t 1.87648 -s 1 -d 0 -p ack -e 40 -c 1 -i 28 -a 1 -x {1.0 0.0 13 ------- null}
+ -t 1.87648 -s 0 -d 1 -p tcp -e 1040 -c 1 -i 42 -a 1 -x {0.0 1.0 27 ------- null}
+ -t 1.87648 -s 0 -d 1 -p tcp -e 1040 -c 1 -i 43 -a 1 -x {0.0 1.0 28 ------- null}
- -t 1.87648 -s 0 -d 1 -p tcp -e 1040 -c 1 -i 36 -a 1 -x {0.0 1.0 21 ------- null}
h -t 1.87648 -s 0 -d 1 -p tcp -e 1040 -c 1 -i 36 -a 1 -x {0.0 1.0 -1 ------- null}
r -t 1.8848 -s 1 -d 0 -p ack -e 40 -c 1 -i 29 -a 1 -x {1.0 0.0 14 ------- null}
+ -t 1.8848 -s 0 -d 1 -p tcp -e 1040 -c 1 -i 44 -a 1 -x {0.0 1.0 29 ------- null}
+ -t 1.8848 -s 0 -d 1 -p tcp -e 1040 -c 1 -i 45 -a 1 -x {0.0 1.0 30 ------- null}
- -t 1.8848 -s 0 -d 1 -p tcp -e 1040 -c 1 -i 37 -a 1 -x {0.0 1.0 22 ------- null}
h -t 1.8848 -s 0 -d 1 -p tcp -e 1040 -c 1 -i 37 -a 1 -x {0.0 1.0 -1 ------- null}
- -t 1.89312 -s 0 -d 1 -p tcp -e 1040 -c 1 -i 38 -a 1 -x {0.0 1.0 23 ------- null}
h -t 1.89312 -s 0 -d 1 -p tcp -e 1040 -c 1 -i 38 -a 1 -x {0.0 1.0 -1 ------- null}
- -t 1.90144 -s 0 -d 1 -p tcp -e 1040 -c 1 -i 39 -a 1 -x {0.0 1.0 24 ------- null}
h -t 1.90144 -s 0 -d 1 -p tcp -e 1040 -c 1 -i 39 -a 1 -x {0.0 1.0 -1 ------- null}
- -t 1.90976 -s 0 -d 1 -p tcp -e 1040 -c 1 -i 40 -a 1 -x {0.0 1.0 25 ------- null}
h -t 1.90976 -s 0 -d 1 -p tcp -e 1040 -c 1 -i 40 -a 1 -x {0.0 1.0 -1 ------- null}
- -t 1.91808 -s 0 -d 1 -p tcp -e 1040 -c 1 -i 41 -a 1 -x {0.0 1.0 26 ------- null}
h -t 1.91808 -s 0 -d 1 -p tcp -e 1040 -c 1 -i 41 -a 1 -x {0.0 1.0 -1 ------- null}
- -t 1.9264 -s 0 -d 1 -p tcp -e 1040 -c 1 -i 42 -a 1 -x {0.0 1.0 27 ------- null}
h -t 1.9264 -s 0 -d 1 -p tcp -e 1040 -c 1 -i 42 -a 1 -x {0.0 1.0 -1 ------- null}
- -t 1.93472 -s 0 -d 1 -p tcp -e 1040 -c 1 -i 43 -a 1 -x {0.0 1.0 28 ------- null}
h -t 1.93472 -s 0 -d 1 -p tcp -e 1040 -c 1 -i 43 -a 1 -x {0.0 1.0 -1 ------- null}
r -t 1.93488 -s 0 -d 1 -p tcp -e 1040 -c 1 -i 30 -a 1 -x {0.0 1.0 15 ------- null}
+ -t 1.93488 -s 1 -d 0 -p ack -e 40 -c 1 -i 46 -a 1 -x {1.0 0.0 15 ------- null}
- -t 1.93488 -s 1 -d 0 -p ack -e 40 -c 1 -i 46 -a 1 -x {1.0 0.0 15 ------- null}
h -t 1.93488 -s 1 -d 0 -p ack -e 40 -c 1 -i 46 -a 1 -x {1.0 0.0 -1 ------- null}
- -t 1.94304 -s 0 -d 1 -p tcp -e 1040 -c 1 -i 44 -a 1 -x {0.0 1.0 29 ------- null}
h -t 1.94304 -s 0 -d 1 -p tcp -e 1040 -c 1 -i 44 -a 1 -x {0.0 1.0 -1 ------- null}
r -t 1.9432 -s 0 -d 1 -p tcp -e 1040 -c 1 -i 31 -a 1 -x {0.0 1.0 16 ------- null}
+ -t 1.9432 -s 1 -d 0 -p ack -e 40 -c 1 -i 47 -a 1 -x {1.0 0.0 16 ------- null}
- -t 1.9432 -s 1 -d 0 -p ack -e 40 -c 1 -i 47 -a 1 -x {1.0 0.0 16 ------- null}
h -t 1.9432 -s 1 -d 0 -p ack -e 40 -c 1 -i 47 -a 1 -x {1.0 0.0 -1 ------- null}
- -t 1.95136 -s 0 -d 1 -p tcp -e 1040 -c 1 -i 45 -a 1 -x {0.0 1.0 30 ------- null}
h -t 1.95136 -s 0 -d 1 -p tcp -e 1040 -c 1 -i 45 -a 1 -x {0.0 1.0 -1 ------- null}
r -t 1.95152 -s 0 -d 1 -p tcp -e 1040 -c 1 -i 32 -a 1 -x {0.0 1.0 17 ------- null}
+ -t 1.95152 -s 1 -d 0 -p ack -e 40 -c 1 -i 48 -a 1 -x {1.0 0.0 17 ------- null}
- -t 1.95152 -s 1 -d 0 -p ack -e 40 -c 1 -i 48 -a 1 -x {1.0 0.0 17 ------- null}
h -t 1.95152 -s 1 -d 0 -p ack -e 40 -c 1 -i 48 -a 1 -x {1.0 0.0 -1 ------- null}
r -t 1.95984 -s 0 -d 1 -p tcp -e 1040 -c 1 -i 33 -a 1 -x {0.0 1.0 18 ------- null}
+ -t 1.95984 -s 1 -d 0 -p ack -e 40 -c 1 -i 49 -a 1 -x {1.0 0.0 18 ------- null}
- -t 1.95984 -s 1 -d 0 -p ack -e 40 -c 1 -i 49 -a 1 -x {1.0 0.0 18 ------- null}
h -t 1.95984 -s 1 -d 0 -p ack -e 40 -c 1 -i 49 -a 1 -x {1.0 0.0 -1 ------- null}
r -t 1.96816 -s 0 -d 1 -p tcp -e 1040 -c 1 -i 34 -a 1 -x {0.0 1.0 19 ------- null}
+ -t 1.96816 -s 1 -d 0 -p ack -e 40 -c 1 -i 50 -a 1 -x {1.0 0.0 19 ------- null}
- -t 1.96816 -s 1 -d 0 -p ack -e 40 -c 1 -i 50 -a 1 -x {1.0 0.0 19 ------- null}
h -t 1.96816 -s 1 -d 0 -p ack -e 40 -c 1 -i 50 -a 1 -x {1.0 0.0 -1 ------- null}
r -t 1.97648 -s 0 -d 1 -p tcp -e 1040 -c 1 -i 35 -a 1 -x {0.0 1.0 20 ------- null}
+ -t 1.97648 -s 1 -d 0 -p ack -e 40 -c 1 -i 51 -a 1 -x {1.0 0.0 20 ------- null}
- -t 1.97648 -s 1 -d 0 -p ack -e 40 -c 1 -i 51 -a 1 -x {1.0 0.0 20 ------- null}
h -t 1.97648 -s 1 -d 0 -p ack -e 40 -c 1 -i 51 -a 1 -x {1.0 0.0 -1 ------- null}
r -t 1.9848 -s 0 -d 1 -p tcp -e 1040 -c 1 -i 36 -a 1 -x {0.0 1.0 21 ------- null}
+ -t 1.9848 -s 1 -d 0 -p ack -e 40 -c 1 -i 52 -a 1 -x {1.0 0.0 21 ------- null}
- -t 1.9848 -s 1 -d 0 -p ack -e 40 -c 1 -i 52 -a 1 -x {1.0 0.0 21 ------- null}
h -t 1.9848 -s 1 -d 0 -p ack -e 40 -c 1 -i 52 -a 1 -x {1.0 0.0 -1 ------- null}
r -t 1.99312 -s 0 -d 1 -p tcp -e 1040 -c 1 -i 37 -a 1 -x {0.0 1.0 22 ------- null}
+ -t 1.99312 -s 1 -d 0 -p ack -e 40 -c 1 -i 53 -a 1 -x {1.0 0.0 22 ------- null}
- -t 1.99312 -s 1 -d 0 -p ack -e 40 -c 1 -i 53 -a 1 -x {1.0 0.0 22 ------- null}
h -t 1.99312 -s 1 -d 0 -p ack -e 40 -c 1 -i 53 -a 1 -x {1.0 0.0 -1 ------- null}
r -t 2.00144 -s 0 -d 1 -p tcp -e 1040 -c 1 -i 38 -a 1 -x {0.0 1.0 23 ------- null}
+ -t 2.00144 -s 1 -d 0 -p ack -e 40 -c 1 -i 54 -a 1 -x {1.0 0.0 23 ------- null}
- -t 2.00144 -s 1 -d 0 -p ack -e 40 -c 1 -i 54 -a 1 -x {1.0 0.0 23 ------- null}
h -t 2.00144 -s 1 -d 0 -p ack -e 40 -c 1 -i 54 -a 1 -x {1.0 0.0 -1 ------- null}
r -t 2.00976 -s 0 -d 1 -p tcp -e 1040 -c 1 -i 39 -a 1 -x {0.0 1.0 24 ------- null}
+ -t 2.00976 -s 1 -d 0 -p ack -e 40 -c 1 -i 55 -a 1 -x {1.0 0.0 24 ------- null}
- -t 2.00976 -s 1 -d 0 -p ack -e 40 -c 1 -i 55 -a 1 -x {1.0 0.0 24 ------- null}
h -t 2.00976 -s 1 -d 0 -p ack -e 40 -c 1 -i 55 -a 1 -x {1.0 0.0 -1 ------- null}
r -t 2.01808 -s 0 -d 1 -p tcp -e 1040 -c 1 -i 40 -a 1 -x {0.0 1.0 25 ------- null}
+ -t 2.01808 -s 1 -d 0 -p ack -e 40 -c 1 -i 56 -a 1 -x {1.0 0.0 25 ------- null}
- -t 2.01808 -s 1 -d 0 -p ack -e 40 -c 1 -i 56 -a 1 -x {1.0 0.0 25 ------- null}
h -t 2.01808 -s 1 -d 0 -p ack -e 40 -c 1 -i 56 -a 1 -x {1.0 0.0 -1 ------- null}
r -t 2.0264 -s 0 -d 1 -p tcp -e 1040 -c 1 -i 41 -a 1 -x {0.0 1.0 26 ------- null}
+ -t 2.0264 -s 1 -d 0 -p ack -e 40 -c 1 -i 57 -a 1 -x {1.0 0.0 26 ------- null}
- -t 2.0264 -s 1 -d 0 -p ack -e 40 -c 1 -i 57 -a 1 -x {1.0 0.0 26 ------- null}
h -t 2.0264 -s 1 -d 0 -p ack -e 40 -c 1 -i 57 -a 1 -x {1.0 0.0 -1 ------- null}
r -t 2.03472 -s 0 -d 1 -p tcp -e 1040 -c 1 -i 42 -a 1 -x {0.0 1.0 27 ------- null}
+ -t 2.03472 -s 1 -d 0 -p ack -e 40 -c 1 -i 58 -a 1 -x {1.0 0.0 27 ------- null}
- -t 2.03472 -s 1 -d 0 -p ack -e 40 -c 1 -i 58 -a 1 -x {1.0 0.0 27 ------- null}
h -t 2.03472 -s 1 -d 0 -p ack -e 40 -c 1 -i 58 -a 1 -x {1.0 0.0 -1 ------- null}
r -t 2.0352 -s 1 -d 0 -p ack -e 40 -c 1 -i 46 -a 1 -x {1.0 0.0 15 ------- null}
+ -t 2.0352 -s 0 -d 1 -p tcp -e 1040 -c 1 -i 59 -a 1 -x {0.0 1.0 31 ------- null}
- -t 2.0352 -s 0 -d 1 -p tcp -e 1040 -c 1 -i 59 -a 1 -x {0.0 1.0 31 ------- null}
h -t 2.0352 -s 0 -d 1 -p tcp -e 1040 -c 1 -i 59 -a 1 -x {0.0 1.0 -1 ------- null}
+ -t 2.0352 -s 0 -d 1 -p tcp -e 1040 -c 1 -i 60 -a 1 -x {0.0 1.0 32 ------- null}
r -t 2.04304 -s 0 -d 1 -p tcp -e 1040 -c 1 -i 43 -a 1 -x {0.0 1.0 28 ------- null}
+ -t 2.04304 -s 1 -d 0 -p ack -e 40 -c 1 -i 61 -a 1 -x {1.0 0.0 28 ------- null}
- -t 2.04304 -s 1 -d 0 -p ack -e 40 -c 1 -i 61 -a 1 -x {1.0 0.0 28 ------- null}
h -t 2.04304 -s 1 -d 0 -p ack -e 40 -c 1 -i 61 -a 1 -x {1.0 0.0 -1 ------- null}
- -t 2.04352 -s 0 -d 1 -p tcp -e 1040 -c 1 -i 60 -a 1 -x {0.0 1.0 32 ------- null}
h -t 2.04352 -s 0 -d 1 -p tcp -e 1040 -c 1 -i 60 -a 1 -x {0.0 1.0 -1 ------- null}
r -t 2.04352 -s 1 -d 0 -p ack -e 40 -c 1 -i 47 -a 1 -x {1.0 0.0 16 ------- null}
+ -t 2.04352 -s 0 -d 1 -p tcp -e 1040 -c 1 -i 62 -a 1 -x {0.0 1.0 33 ------- null}
+ -t 2.04352 -s 0 -d 1 -p tcp -e 1040 -c 1 -i 63 -a 1 -x {0.0 1.0 34 ------- null}
r -t 2.05136 -s 0 -d 1 -p tcp -e 1040 -c 1 -i 44 -a 1 -x {0.0 1.0 29 ------- null}
+ -t 2.05136 -s 1 -d 0 -p ack -e 40 -c 1 -i 64 -a 1 -x {1.0 0.0 29 ------- null}
- -t 2.05136 -s 1 -d 0 -p ack -e 40 -c 1 -i 64 -a 1 -x {1.0 0.0 29 ------- null}
h -t 2.05136 -s 1 -d 0 -p ack -e 40 -c 1 -i 64 -a 1 -x {1.0 0.0 -1 ------- null}
- -t 2.05184 -s 0 -d 1 -p tcp -e 1040 -c 1 -i 62 -a 1 -x {0.0 1.0 33 ------- null}
h -t 2.05184 -s 0 -d 1 -p tcp -e 1040 -c 1 -i 62 -a 1 -x {0.0 1.0 -1 ------- null}
r -t 2.05184 -s 1 -d 0 -p ack -e 40 -c 1 -i 48 -a 1 -x {1.0 0.0 17 ------- null}
+ -t 2.05184 -s 0 -d 1 -p tcp -e 1040 -c 1 -i 65 -a 1 -x {0.0 1.0 35 ------- null}
+ -t 2.05184 -s 0 -d 1 -p tcp -e 1040 -c 1 -i 66 -a 1 -x {0.0 1.0 36 ------- null}
r -t 2.05968 -s 0 -d 1 -p tcp -e 1040 -c 1 -i 45 -a 1 -x {0.0 1.0 30 ------- null}
+ -t 2.05968 -s 1 -d 0 -p ack -e 40 -c 1 -i 67 -a 1 -x {1.0 0.0 30 ------- null}
- -t 2.05968 -s 1 -d 0 -p ack -e 40 -c 1 -i 67 -a 1 -x {1.0 0.0 30 ------- null}
h -t 2.05968 -s 1 -d 0 -p ack -e 40 -c 1 -i 67 -a 1 -x {1.0 0.0 -1 ------- null}
- -t 2.06016 -s 0 -d 1 -p tcp -e 1040 -c 1 -i 63 -a 1 -x {0.0 1.0 34 ------- null}
h -t 2.06016 -s 0 -d 1 -p tcp -e 1040 -c 1 -i 63 -a 1 -x {0.0 1.0 -1 ------- null}
r -t 2.06016 -s 1 -d 0 -p ack -e 40 -c 1 -i 49 -a 1 -x {1.0 0.0 18 ------- null}
+ -t 2.06016 -s 0 -d 1 -p tcp -e 1040 -c 1 -i 68 -a 1 -x {0.0 1.0 37 ------- null}
+ -t 2.06016 -s 0 -d 1 -p tcp -e 1040 -c 1 -i 69 -a 1 -x {0.0 1.0 38 ------- null}
- -t 2.06848 -s 0 -d 1 -p tcp -e 1040 -c 1 -i 65 -a 1 -x {0.0 1.0 35 ------- null}
h -t 2.06848 -s 0 -d 1 -p tcp -e 1040 -c 1 -i 65 -a 1 -x {0.0 1.0 -1 ------- null}
r -t 2.06848 -s 1 -d 0 -p ack -e 40 -c 1 -i 50 -a 1 -x {1.0 0.0 19 ------- null}
+ -t 2.06848 -s 0 -d 1 -p tcp -e 1040 -c 1 -i 70 -a 1 -x {0.0 1.0 39 ------- null}
- -t 2.0768 -s 0 -d 1 -p tcp -e 1040 -c 1 -i 66 -a 1 -x {0.0 1.0 36 ------- null}
h -t 2.0768 -s 0 -d 1 -p tcp -e 1040 -c 1 -i 66 -a 1 -x {0.0 1.0 -1 ------- null}
r -t 2.0768 -s 1 -d 0 -p ack -e 40 -c 1 -i 51 -a 1 -x {1.0 0.0 20 ------- null}
+ -t 2.0768 -s 0 -d 1 -p tcp -e 1040 -c 1 -i 71 -a 1 -x {0.0 1.0 40 ------- null}
- -t 2.08512 -s 0 -d 1 -p tcp -e 1040 -c 1 -i 68 -a 1 -x {0.0 1.0 37 ------- null}
h -t 2.08512 -s 0 -d 1 -p tcp -e 1040 -c 1 -i 68 -a 1 -x {0.0 1.0 -1 ------- null}
r -t 2.08512 -s 1 -d 0 -p ack -e 40 -c 1 -i 52 -a 1 -x {1.0 0.0 21 ------- null}
+ -t 2.08512 -s 0 -d 1 -p tcp -e 1040 -c 1 -i 72 -a 1 -x {0.0 1.0 41 ------- null}
- -t 2.09344 -s 0 -d 1 -p tcp -e 1040 -c 1 -i 69 -a 1 -x {0.0 1.0 38 ------- null}
h -t 2.09344 -s 0 -d 1 -p tcp -e 1040 -c 1 -i 69 -a 1 -x {0.0 1.0 -1 ------- null}
r -t 2.09344 -s 1 -d 0 -p ack -e 40 -c 1 -i 53 -a 1 -x {1.0 0.0 22 ------- null}
+ -t 2.09344 -s 0 -d 1 -p tcp -e 1040 -c 1 -i 73 -a 1 -x {0.0 1.0 42 ------- null}
- -t 2.10176 -s 0 -d 1 -p tcp -e 1040 -c 1 -i 70 -a 1 -x {0.0 1.0 39 ------- null}
h -t 2.10176 -s 0 -d 1 -p tcp -e 1040 -c 1 -i 70 -a 1 -x {0.0 1.0 -1 ------- null}
r -t 2.10176 -s 1 -d 0 -p ack -e 40 -c 1 -i 54 -a 1 -x {1.0 0.0 23 ------- null}
+ -t 2.10176 -s 0 -d 1 -p tcp -e 1040 -c 1 -i 74 -a 1 -x {0.0 1.0 43 ------- null}
- -t 2.11008 -s 0 -d 1 -p tcp -e 1040 -c 1 -i 71 -a 1 -x {0.0 1.0 40 ------- null}
h -t 2.11008 -s 0 -d 1 -p tcp -e 1040 -c 1 -i 71 -a 1 -x {0.0 1.0 -1 ------- null}
r -t 2.11008 -s 1 -d 0 -p ack -e 40 -c 1 -i 55 -a 1 -x {1.0 0.0 24 ------- null}
+ -t 2.11008 -s 0 -d 1 -p tcp -e 1040 -c 1 -i 75 -a 1 -x {0.0 1.0 44 ------- null}
- -t 2.1184 -s 0 -d 1 -p tcp -e 1040 -c 1 -i 72 -a 1 -x {0.0 1.0 41 ------- null}
h -t 2.1184 -s 0 -d 1 -p tcp -e 1040 -c 1 -i 72 -a 1 -x {0.0 1.0 -1 ------- null}
r -t 2.1184 -s 1 -d 0 -p ack -e 40 -c 1 -i 56 -a 1 -x {1.0 0.0 25 ------- null}
+ -t 2.1184 -s 0 -d 1 -p tcp -e 1040 -c 1 -i 76 -a 1 -x {0.0 1.0 45 ------- null}
- -t 2.12672 -s 0 -d 1 -p tcp -e 1040 -c 1 -i 73 -a 1 -x {0.0 1.0 42 ------- null}
h -t 2.12672 -s 0 -d 1 -p tcp -e 1040 -c 1 -i 73 -a 1 -x {0.0 1.0 -1 ------- null}
r -t 2.12672 -s 1 -d 0 -p ack -e 40 -c 1 -i 57 -a 1 -x {1.0 0.0 26 ------- null}
+ -t 2.12672 -s 0 -d 1 -p tcp -e 1040 -c 1 -i 77 -a 1 -x {0.0 1.0 46 ------- null}
- -t 2.13504 -s 0 -d 1 -p tcp -e 1040 -c 1 -i 74 -a 1 -x {0.0 1.0 43 ------- null}
h -t 2.13504 -s 0 -d 1 -p tcp -e 1040 -c 1 -i 74 -a 1 -x {0.0 1.0 -1 ------- null}
r -t 2.13504 -s 1 -d 0 -p ack -e 40 -c 1 -i 58 -a 1 -x {1.0 0.0 27 ------- null}
+ -t 2.13504 -s 0 -d 1 -p tcp -e 1040 -c 1 -i 78 -a 1 -x {0.0 1.0 47 ------- null}
- -t 2.14336 -s 0 -d 1 -p tcp -e 1040 -c 1 -i 75 -a 1 -x {0.0 1.0 44 ------- null}
h -t 2.14336 -s 0 -d 1 -p tcp -e 1040 -c 1 -i 75 -a 1 -x {0.0 1.0 -1 ------- null}
r -t 2.14336 -s 1 -d 0 -p ack -e 40 -c 1 -i 61 -a 1 -x {1.0 0.0 28 ------- null}
+ -t 2.14336 -s 0 -d 1 -p tcp -e 1040 -c 1 -i 79 -a 1 -x {0.0 1.0 48 ------- null}
r -t 2.14352 -s 0 -d 1 -p tcp -e 1040 -c 1 -i 59 -a 1 -x {0.0 1.0 31 ------- null}
+ -t 2.14352 -s 1 -d 0 -p ack -e 40 -c 1 -i 80 -a 1 -x {1.0 0.0 31 ------- null}
- -t 2.14352 -s 1 -d 0 -p ack -e 40 -c 1 -i 80 -a 1 -x {1.0 0.0 31 ------- null}
h -t 2.14352 -s 1 -d 0 -p ack -e 40 -c 1 -i 80 -a 1 -x {1.0 0.0 -1 ------- null}
- -t 2.15168 -s 0 -d 1 -p tcp -e 1040 -c 1 -i 76 -a 1 -x {0.0 1.0 45 ------- null}
h -t 2.15168 -s 0 -d 1 -p tcp -e 1040 -c 1 -i 76 -a 1 -x {0.0 1.0 -1 ------- null}
r -t 2.15168 -s 1 -d 0 -p ack -e 40 -c 1 -i 64 -a 1 -x {1.0 0.0 29 ------- null}
+ -t 2.15168 -s 0 -d 1 -p tcp -e 1040 -c 1 -i 81 -a 1 -x {0.0 1.0 49 ------- null}
r -t 2.15184 -s 0 -d 1 -p tcp -e 1040 -c 1 -i 60 -a 1 -x {0.0 1.0 32 ------- null}
+ -t 2.15184 -s 1 -d 0 -p ack -e 40 -c 1 -i 82 -a 1 -x {1.0 0.0 32 ------- null}
- -t 2.15184 -s 1 -d 0 -p ack -e 40 -c 1 -i 82 -a 1 -x {1.0 0.0 32 ------- null}
h -t 2.15184 -s 1 -d 0 -p ack -e 40 -c 1 -i 82 -a 1 -x {1.0 0.0 -1 ------- null}
- -t 2.16 -s 0 -d 1 -p tcp -e 1040 -c 1 -i 77 -a 1 -x {0.0 1.0 46 ------- null}
h -t 2.16 -s 0 -d 1 -p tcp -e 1040 -c 1 -i 77 -a 1 -x {0.0 1.0 -1 ------- null}
r -t 2.16 -s 1 -d 0 -p ack -e 40 -c 1 -i 67 -a 1 -x {1.0 0.0 30 ------- null}
+ -t 2.16 -s 0 -d 1 -p tcp -e 1040 -c 1 -i 83 -a 1 -x {0.0 1.0 50 ------- null}
r -t 2.16016 -s 0 -d 1 -p tcp -e 1040 -c 1 -i 62 -a 1 -x {0.0 1.0 33 ------- null}
+ -t 2.16016 -s 1 -d 0 -p ack -e 40 -c 1 -i 84 -a 1 -x {1.0 0.0 33 ------- null}
- -t 2.16016 -s 1 -d 0 -p ack -e 40 -c 1 -i 84 -a 1 -x {1.0 0.0 33 ------- null}
h -t 2.16016 -s 1 -d 0 -p ack -e 40 -c 1 -i 84 -a 1 -x {1.0 0.0 -1 ------- null}
- -t 2.16832 -s 0 -d 1 -p tcp -e 1040 -c 1 -i 78 -a 1 -x {0.0 1.0 47 ------- null}
h -t 2.16832 -s 0 -d 1 -p tcp -e 1040 -c 1 -i 78 -a 1 -x {0.0 1.0 -1 ------- null}
r -t 2.16848 -s 0 -d 1 -p tcp -e 1040 -c 1 -i 63 -a 1 -x {0.0 1.0 34 ------- null}
+ -t 2.16848 -s 1 -d 0 -p ack -e 40 -c 1 -i 85 -a 1 -x {1.0 0.0 34 ------- null}
- -t 2.16848 -s 1 -d 0 -p ack -e 40 -c 1 -i 85 -a 1 -x {1.0 0.0 34 ------- null}
h -t 2.16848 -s 1 -d 0 -p ack -e 40 -c 1 -i 85 -a 1 -x {1.0 0.0 -1 ------- null}
- -t 2.17664 -s 0 -d 1 -p tcp -e 1040 -c 1 -i 79 -a 1 -x {0.0 1.0 48 ------- null}
h -t 2.17664 -s 0 -d 1 -p tcp -e 1040 -c 1 -i 79 -a 1 -x {0.0 1.0 -1 ------- null}
r -t 2.1768 -s 0 -d 1 -p tcp -e 1040 -c 1 -i 65 -a 1 -x {0.0 1.0 35 ------- null}
+ -t 2.1768 -s 1 -d 0 -p ack -e 40 -c 1 -i 86 -a 1 -x {1.0 0.0 35 ------- null}
- -t 2.1768 -s 1 -d 0 -p ack -e 40 -c 1 -i 86 -a 1 -x {1.0 0.0 35 ------- null}
h -t 2.1768 -s 1 -d 0 -p ack -e 40 -c 1 -i 86 -a 1 -x {1.0 0.0 -1 ------- null}
- -t 2.18496 -s 0 -d 1 -p tcp -e 1040 -c 1 -i 81 -a 1 -x {0.0 1.0 49 ------- null}
h -t 2.18496 -s 0 -d 1 -p tcp -e 1040 -c 1 -i 81 -a 1 -x {0.0 1.0 -1 ------- null}
r -t 2.18512 -s 0 -d 1 -p tcp -e 1040 -c 1 -i 66 -a 1 -x {0.0 1.0 36 ------- null}
+ -t 2.18512 -s 1 -d 0 -p ack -e 40 -c 1 -i 87 -a 1 -x {1.0 0.0 36 ------- null}
- -t 2.18512 -s 1 -d 0 -p ack -e 40 -c 1 -i 87 -a 1 -x {1.0 0.0 36 ------- null}
h -t 2.18512 -s 1 -d 0 -p ack -e 40 -c 1 -i 87 -a 1 -x {1.0 0.0 -1 ------- null}
- -t 2.19328 -s 0 -d 1 -p tcp -e 1040 -c 1 -i 83 -a 1 -x {0.0 1.0 50 ------- null}
h -t 2.19328 -s 0 -d 1 -p tcp -e 1040 -c 1 -i 83 -a 1 -x {0.0 1.0 -1 ------- null}
r -t 2.19344 -s 0 -d 1 -p tcp -e 1040 -c 1 -i 68 -a 1 -x {0.0 1.0 37 ------- null}
+ -t 2.19344 -s 1 -d 0 -p ack -e 40 -c 1 -i 88 -a 1 -x {1.0 0.0 37 ------- null}
- -t 2.19344 -s 1 -d 0 -p ack -e 40 -c 1 -i 88 -a 1 -x {1.0 0.0 37 ------- null}
h -t 2.19344 -s 1 -d 0 -p ack -e 40 -c 1 -i 88 -a 1 -x {1.0 0.0 -1 ------- null}
r -t 2.20176 -s 0 -d 1 -p tcp -e 1040 -c 1 -i 69 -a 1 -x {0.0 1.0 38 ------- null}
+ -t 2.20176 -s 1 -d 0 -p ack -e 40 -c 1 -i 89 -a 1 -x {1.0 0.0 38 ------- null}
- -t 2.20176 -s 1 -d 0 -p ack -e 40 -c 1 -i 89 -a 1 -x {1.0 0.0 38 ------- null}
h -t 2.20176 -s 1 -d 0 -p ack -e 40 -c 1 -i 89 -a 1 -x {1.0 0.0 -1 ------- null}
r -t 2.21008 -s 0 -d 1 -p tcp -e 1040 -c 1 -i 70 -a 1 -x {0.0 1.0 39 ------- null}
+ -t 2.21008 -s 1 -d 0 -p ack -e 40 -c 1 -i 90 -a 1 -x {1.0 0.0 39 ------- null}
- -t 2.21008 -s 1 -d 0 -p ack -e 40 -c 1 -i 90 -a 1 -x {1.0 0.0 39 ------- null}
h -t 2.21008 -s 1 -d 0 -p ack -e 40 -c 1 -i 90 -a 1 -x {1.0 0.0 -1 ------- null}
r -t 2.2184 -s 0 -d 1 -p tcp -e 1040 -c 1 -i 71 -a 1 -x {0.0 1.0 40 ------- null}
+ -t 2.2184 -s 1 -d 0 -p ack -e 40 -c 1 -i 91 -a 1 -x {1.0 0.0 40 ------- null}
- -t 2.2184 -s 1 -d 0 -p ack -e 40 -c 1 -i 91 -a 1 -x {1.0 0.0 40 ------- null}
h -t 2.2184 -s 1 -d 0 -p ack -e 40 -c 1 -i 91 -a 1 -x {1.0 0.0 -1 ------- null}
r -t 2.22672 -s 0 -d 1 -p tcp -e 1040 -c 1 -i 72 -a 1 -x {0.0 1.0 41 ------- null}
+ -t 2.22672 -s 1 -d 0 -p ack -e 40 -c 1 -i 92 -a 1 -x {1.0 0.0 41 ------- null}
- -t 2.22672 -s 1 -d 0 -p ack -e 40 -c 1 -i 92 -a 1 -x {1.0 0.0 41 ------- null}
h -t 2.22672 -s 1 -d 0 -p ack -e 40 -c 1 -i 92 -a 1 -x {1.0 0.0 -1 ------- null}
r -t 2.23504 -s 0 -d 1 -p tcp -e 1040 -c 1 -i 73 -a 1 -x {0.0 1.0 42 ------- null}
+ -t 2.23504 -s 1 -d 0 -p ack -e 40 -c 1 -i 93 -a 1 -x {1.0 0.0 42 ------- null}
- -t 2.23504 -s 1 -d 0 -p ack -e 40 -c 1 -i 93 -a 1 -x {1.0 0.0 42 ------- null}
h -t 2.23504 -s 1 -d 0 -p ack -e 40 -c 1 -i 93 -a 1 -x {1.0 0.0 -1 ------- null}
r -t 2.24336 -s 0 -d 1 -p tcp -e 1040 -c 1 -i 74 -a 1 -x {0.0 1.0 43 ------- null}
+ -t 2.24336 -s 1 -d 0 -p ack -e 40 -c 1 -i 94 -a 1 -x {1.0 0.0 43 ------- null}
- -t 2.24336 -s 1 -d 0 -p ack -e 40 -c 1 -i 94 -a 1 -x {1.0 0.0 43 ------- null}
h -t 2.24336 -s 1 -d 0 -p ack -e 40 -c 1 -i 94 -a 1 -x {1.0 0.0 -1 ------- null}
r -t 2.24384 -s 1 -d 0 -p ack -e 40 -c 1 -i 80 -a 1 -x {1.0 0.0 31 ------- null}
+ -t 2.24384 -s 0 -d 1 -p tcp -e 1040 -c 1 -i 95 -a 1 -x {0.0 1.0 51 ------- null}
- -t 2.24384 -s 0 -d 1 -p tcp -e 1040 -c 1 -i 95 -a 1 -x {0.0 1.0 51 ------- null}
h -t 2.24384 -s 0 -d 1 -p tcp -e 1040 -c 1 -i 95 -a 1 -x {0.0 1.0 -1 ------- null}