V -t * -v 1.0a5 -a 0
A -t * -n 1 -p 0 -o 0x7fffffff -c 30 -a 1
A -t * -h 1 -m 1073741823 -s 0
c -t * -i 2 -n Green
n -t * -a 0 -s 0 -S UP -v circle -c black -i black
n -t * -a 1 -s 1 -S UP -v circle -c black -i black
l -t * -s 0 -d 1 -S UP -r 1000000 -D 0.01 -c black -o right
+ -t 1 -s 0 -d 1 -p cbr -e 1000 -c 0 -i 0 -a 0 -x {0.0 1.0 0 ------- null}
- -t 1 -s 0 -d 1 -p cbr -e 1000 -c 0 -i 0 -a 0 -x {0.0 1.0 0 ------- null}
h -t 1 -s 0 -d 1 -p cbr -e 1000 -c 0 -i 0 -a 0 -x {0.0 1.0 -1 ------- null}
+ -t 1.005 -s 0 -d 1 -p cbr -e 1000 -c 0 -i 1 -a 0 -x {0.0 1.0 1 ------- null}
- -t 1.008 -s 0 -d 1 -p cbr -e 1000 -c 0 -i 1 -a 0 -x {0.0 1.0 1 ------- null}
h -t 1.008 -s 0 -d 1 -p cbr -e 1000 -c 0 -i 1 -a 0 -x {0.0 1.0 -1 ------- null}
+ -t 1.01 -s 0 -d 1 -p cbr -e 1000 -c 0 -i 2 -a 0 -x {0.0 1.0 2 ------- null}
+ -t 1.015 -s 0 -d 1 -p cbr -e 1000 -c 0 -i 3 -a 0 -x {0.0 1.0 3 ------- null}
- -t 1.016 -s 0 -d 1 -p cbr -e 1000 -c 0 -i 2 -a 0 -x {0.0 1.0 2 ------- null}
h -t 1.016 -s 0 -d 1 -p cbr -e 1000 -c 0 -i 2 -a 0 -x {0.0 1.0 -1 ------- null}
r -t 1.018 -s 0 -d 1 -p cbr -e 1000 -c 0 -i 0 -a 0 -x {0.0 1.0 0 ------- null}
+ -t 1.02 -s 0 -d 1 -p cbr -e 1000 -c 0 -i 4 -a 0 -x {0.0 1.0 4 ------- null}
- -t 1.024 -s 0 -d 1 -p cbr -e 1000 -c 0 -i 3 -a 0 -x {0.0 1.0 3 ------- null}
h -t 1.024 -s 0 -d 1 -p cbr -e 1000 -c 0 -i 3 -a 0 -x {0.0 1.0 -1 ------- null}
+ -t 1.025 -s 0 -d 1 -p cbr -e 1000 -c 0 -i 5 -a 0 -x {0.0 1.0 5 ------- null}
r -t 1.026 -s 0 -d 1 -p cbr -e 1000 -c 0 -i 1 -a 0 -x {0.0 1.0 1 ------- null}
+ -t 1.03 -s 0 -d 1 -p cbr -e 1000 -c 0 -i 6 -a 0 -x {0.0 1.0 6 ------- null}
- -t 1.032 -s 0 -d 1 -p cbr -e 1000 -c 0 -i 4 -a 0 -x {0.0 1.0 4 ------- null}
h -t 1.032 -s 0 -d 1 -p cbr -e 1000 -c 0 -i 4 -a 0 -x {0.0 1.0 -1 ------- null}
r -t 1.034 -s 0 -d 1 -p cbr -e 1000 -c 0 -i 2 -a 0 -x {0.0 1.0 2 ------- null}
+ -t 1.035 -s 0 -d 1 -p cbr -e 1000 -c 0 -i 7 -a 0 -x {0.0 1.0 7 ------- null}
+ -t 1.04 -s 0 -d 1 -p cbr -e 1000 -c 0 -i 8 -a 0 -x {0.0 1.0 8 ------- null}
- -t 1.04 -s 0 -d 1 -p cbr -e 1000 -c 0 -i 5 -a 0 -x {0.0 1.0 5 ------- null}
h -t 1.04 -s 0 -d 1 -p cbr -e 1000 -c 0 -i 5 -a 0 -x {0.0 1.0 -1 ------- null}
r -t 1.042 -s 0 -d 1 -p cbr -e 1000 -c 0 -i 3 -a 0 -x {0.0 1.0 3 ------- null}
+ -t 1.045 -s 0 -d 1 -p cbr -e 1000 -c 0 -i 9 -a 0 -x {0.0 1.0 9 ------- null}
- -t 1.048 -s 0 -d 1 -p cbr -e 1000 -c 0 -i 6 -a 0 -x {0.0 1.0 6 ------- null}
h -t 1.048 -s 0 -d 1 -p cbr -e 1000 -c 0 -i 6 -a 0 -x {0.0 1.0 -1 ------- null}
+ -t 1.05 -s 0 -d 1 -p cbr -e 1000 -c 0 -i 10 -a 0 -x {0.0 1.0 10 ------- null}
r -t 1.05 -s 0 -d 1 -p cbr -e 1000 -c 0 -i 4 -a 0 -x {0.0 1.0 4 ------- null}
+ -t 1.055 -s 0 -d 1 -p cbr -e 1000 -c 0 -i 11 -a 0 -x {0.0 1.0 11 ------- null}
- -t 1.056 -s 0 -d 1 -p cbr -e 1000 -c 0 -i 7 -a 0 -x {0.0 1.0 7 ------- null}
h -t 1.056 -s 0 -d 1 -p cbr -e 1000 -c 0 -i 7 -a 0 -x {0.0 1.0 -1 ------- null}
r -t 1.058 -s 0 -d 1 -p cbr -e 1000 -c 0 -i 5 -a 0 -x {0.0 1.0 5 ------- null}
+ -t 1.06 -s 0 -d 1 -p cbr -e 1000 -c 0 -i 12 -a 0 -x {0.0 1.0 12 ------- null}
- -t 1.064 -s 0 -d 1 -p cbr -e 1000 -c 0 -i 8 -a 0 -x {0.0 1.0 8 ------- null}
h -t 1.064 -s 0 -d 1 -p cbr -e 1000 -c 0 -i 8 -a 0 -x {0.0 1.0 -1 ------- null}
+ -t 1.065 -s 0 -d 1 -p cbr -e 1000 -c 0 -i 13 -a 0 -x {0.0 1.0 13 ------- null}
r -t 1.066 -s 0 -d 1 -p cbr -e 1000 -c 0 -i 6 -a 0 -x {0.0 1.0 6 ------- null}
+ -t 1.07 -s 0 -d 1 -p cbr -e 1000 -c 0 -i 14 -a 0 -x {0.0 1.0 14 ------- null}
- -t 1.072 -s 0 -d 1 -p cbr -e 1000 -c 0 -i 9 -a 0 -x {0.0 1.0 9 ------- null}
h -t 1.072 -s 0 -d 1 -p cbr -e 1000 -c 0 -i 9 -a 0 -x {0.0 1.0 -1 ------- null}
r -t 1.074 -s 0 -d 1 -p cbr -e 1000 -c 0 -i 7 -a 0 -x {0.0 1.0 7 ------- null}
+ -t 1.075 -s 0 -d 1 -p cbr -e 1000 -c 0 -i 15 -a 0 -x {0.0 1.0 15 ------- null}
+ -t 1.08 -s 0 -d 1 -p cbr -e 1000 -c 0 -i 16 -a 0 -x {0.0 1.0 16 ------- null}
- -t 1.08 -s 0 -d 1 -p cbr -e 1000 -c 0 -i 10 -a 0 -x {0.0 1.0 10 ------- null}
h -t 1.08 -s 0 -d 1 -p cbr -e 1000 -c 0 -i 10 -a 0 -x {0.0 1.0 -1 ------- null}
r -t 1.082 -s 0 -d 1 -p cbr -e 1000 -c 0 -i 8 -a 0 -x {0.0 1.0 8 ------- null}
+ -t 1.085 -s 0 -d 1 -p cbr -e 1000 -c 0 -i 17 -a 0 -x {0.0 1.0 17 ------- null}
- -t 1.088 -s 0 -d 1 -p cbr -e 1000 -c 0 -i 11 -a 0 -x {0.0 1.0 11 ------- null}
h -t 1.088 -s 0 -d 1 -p cbr -e 1000 -c 0 -i 11 -a 0 -x {0.0 1.0 -1 ------- null}
+ -t 1.09 -s 0 -d 1 -p cbr -e 1000 -c 0 -i 18 -a 0 -x {0.0 1.0 18 ------- null}
r -t 1.09 -s 0 -d 1 -p cbr -e 1000 -c 0 -i 9 -a 0 -x {0.0 1.0 9 ------- null}
+ -t 1.095 -s 0 -d 1 -p cbr -e 1000 -c 0 -i 19 -a 0 -x {0.0 1.0 19 ------- null}
- -t 1.096 -s 0 -d 1 -p cbr -e 1000 -c 0 -i 12 -a 0 -x {0.0 1.0 12 ------- null}
h -t 1.096 -s 0 -d 1 -p cbr -e 1000 -c 0 -i 12 -a 0 -x {0.0 1.0 -1 ------- null}
r -t 1.098 -s 0 -d 1 -p cbr -e 1000 -c 0 -i 10 -a 0 -x {0.0 1.0 10 ------- null}
+ -t 1.1 -s 0 -d 1 -p cbr -e 1000 -c 0 -i 20 -a 0 -x {0.0 1.0 20 ------- null}
- -t 1.104 -s 0 -d 1 -p cbr -e 1000 -c 0 -i 13 -a 0 -x {0.0 1.0 13 ------- null}
h -t 1.104 -s 0 -d 1 -p cbr -e 1000 -c 0 -i 13 -a 0 -x {0.0 1.0 -1 ------- null}
+ -t 1.105 -s 0 -d 1 -p cbr -e 1000 -c 0 -i 21 -a 0 -x {0.0 1.0 21 ------- null}
r -t 1.106 -s 0 -d 1 -p cbr -e 1000 -c 0 -i 11 -a 0 -x {0.0 1.0 11 ------- null}
+ -t 1.11 -s 0 -d 1 -p cbr -e 1000 -c 0 -i 22 -a 0 -x {0.0 1.0 22 ------- null}
- -t 1.112 -s 0 -d 1 -p cbr -e 1000 -c 0 -i 14 -a 0 -x {0.0 1.0 14 ------- null}
h -t 1.112 -s 0 -d 1 -p cbr -e 1000 -c 0 -i 14 -a 0 -x {0.0 1.0 -1 ------- null}
r -t 1.114 -s 0 -d 1 -p cbr -e 1000 -c 0 -i 12 -a 0 -x {0.0 1.0 12 ------- null}
+ -t 1.115 -s 0 -d 1 -p cbr -e 1000 -c 0 -i 23 -a 0 -x {0.0 1.0 23 ------- null}
+ -t 1.12 -s 0 -d 1 -p cbr -e 1000 -c 0 -i 24 -a 0 -x {0.0 1.0 24 ------- null}
- -t 1.12 -s 0 -d 1 -p cbr -e 1000 -c 0 -i 15 -a 0 -x {0.0 1.0 15 ------- null}
h -t 1.12 -s 0 -d 1 -p cbr -e 1000 -c 0 -i 15 -a 0 -x {0.0 1.0 -1 ------- null}
r -t 1.122 -s 0 -d 1 -p cbr -e 1000 -c 0 -i 13 -a 0 -x {0.0 1.0 13 ------- null}
+ -t 1.125 -s 0 -d 1 -p cbr -e 1000 -c 0 -i 25 -a 0 -x {0.0 1.0 25 ------- null}
- -t 1.128 -s 0 -d 1 -p cbr -e 1000 -c 0 -i 16 -a 0 -x {0.0 1.0 16 ------- null}
h -t 1.128 -s 0 -d 1 -p cbr -e 1000 -c 0 -i 16 -a 0 -x {0.0 1.0 -1 ------- null}
+ -t 1.13 -s 0 -d 1 -p cbr -e 1000 -c 0 -i 26 -a 0 -x {0.0 1.0 26 ------- null}
r -t 1.13 -s 0 -d 1 -p cbr -e 1000 -c 0 -i 14 -a 0 -x {0.0 1.0 14 ------- null}
+ -t 1.135 -s 0 -d 1 -p cbr -e 1000 -c 0 -i 27 -a 0 -x {0.0 1.0 27 ------- null}
- -t 1.136 -s 0 -d 1 -p cbr -e 1000 -c 0 -i 17 -a 0 -x {0.0 1.0 17 ------- null}
h -t 1.136 -s 0 -d 1 -p cbr -e 1000 -c 0 -i 17 -a 0 -x {0.0 1.0 -1 ------- null}
r -t 1.138 -s 0 -d 1 -p cbr -e 1000 -c 0 -i 15 -a 0 -x {0.0 1.0 15 ------- null}
+ -t 1.14 -s 0 -d 1 -p cbr -e 1000 -c 0 -i 28 -a 0 -x {0.0 1.0 28 ------- null}
- -t 1.144 -s 0 -d 1 -p cbr -e 1000 -c 0 -i 18 -a 0 -x {0.0 1.0 18 ------- null}
h -t 1.144 -s 0 -d 1 -p cbr -e 1000 -c 0 -i 18 -a 0 -x {0.0 1.0 -1 ------- null}
+ -t 1.145 -s 0 -d 1 -p cbr -e 1000 -c 0 -i 29 -a 0 -x {0.0 1.0 29 ------- null}
r -t 1.146 -s 0 -d 1 -p cbr -e 1000 -c 0 -i 16 -a 0 -x {0.0 1.0 16 ------- null}
+ -t 1.15 -s 0 -d 1 -p cbr -e 1000 -c 0 -i 30 -a 0 -x {0.0 1.0 30 ------- null}
- -t 1.152 -s 0 -d 1 -p cbr -e 1000 -c 0 -i 19 -a 0 -x {0.0 1.0 19 ------- null}
h -t 1.152 -s 0 -d 1 -p cbr -e 1000 -c 0 -i 19 -a 0 -x {0.0 1.0 -1 ------- null}
r -t 1.154 -s 0 -d 1 -p cbr -e 1000 -c 0 -i 17 -a 0 -x {0.0 1.0 17 ------- null}
+ -t 1.155 -s 0 -d 1 -p cbr -e 1000 -c 0 -i 31 -a 0 -x {0.0 1.0 31 ------- null}
+ -t 1.16 -s 0 -d 1 -p cbr -e 1000 -c 0 -i 32 -a 0 -x {0.0 1.0 32 ------- null}
- -t 1.16 -s 0 -d 1 -p cbr -e 1000 -c 0 -i 20 -a 0 -x {0.0 1.0 20 ------- null}
h -t 1.16 -s 0 -d 1 -p cbr -e 1000 -c 0 -i 20 -a 0 -x {0.0 1.0 -1 ------- null}
r -t 1.162 -s 0 -d 1 -p cbr -e 1000 -c 0 -i 18 -a 0 -x {0.0 1.0 18 ------- null}
+ -t 1.165 -s 0 -d 1 -p cbr -e 1000 -c 0 -i 33 -a 0 -x {0.0 1.0 33 ------- null}
- -t 1.168 -s 0 -d 1 -p cbr -e 1000 -c 0 -i 21 -a 0 -x {0.0 1.0 21 ------- null}
h -t 1.168 -s 0 -d 1 -p cbr -e 1000 -c 0 -i 21 -a 0 -x {0.0 1.0 -1 ------- null}
+ -t 1.17 -s 0 -d 1 -p cbr -e 1000 -c 0 -i 34 -a 0 -x {0.0 1.0 34 ------- null}
r -t 1.17 -s 0 -d 1 -p cbr -e 1000 -c 0 -i 19 -a 0 -x {0.0 1.0 19 ------- null}
+ -t 1.175 -s 0 -d 1 -p cbr -e 1000 -c 0 -i 35 -a 0 -x {0.0 1.0 35 ------- null}
- -t 1.176 -s 0 -d 1 -p cbr -e 1000 -c 0 -i 22 -a 0 -x {0.0 1.0 22 ------- null}
h -t 1.176 -s 0 -d 1 -p cbr -e 1000 -c 0 -i 22 -a 0 -x {0.0 1.0 -1 ------- null}
r -t 1.178 -s 0 -d 1 -p cbr -e 1000 -c 0 -i 20 -a 0 -x {0.0 1.0 20 ------- null}
+ -t 1.18 -s 0 -d 1 -p cbr -e 1000 -c 0 -i 36 -a 0 -x {0.0 1.0 36 ------- null}
- -t 1.184 -s 0 -d 1 -p cbr -e 1000 -c 0 -i 23 -a 0 -x {0.0 1.0 23 ------- null}
h -t 1.184 -s 0 -d 1 -p cbr -e 1000 -c 0 -i 23 -a 0 -x {0.0 1.0 -1 ------- null}
+ -t 1.185 -s 0 -d 1 -p cbr -e 1000 -c 0 -i 37 -a 0 -x {0.0 1.0 37 ------- null}
r -t 1.186 -s 0 -d 1 -p cbr -e 1000 -c 0 -i 21 -a 0 -x {0.0 1.0 21 ------- null}
+ -t 1.19 -s 0 -d 1 -p cbr -e 1000 -c 0 -i 38 -a 0 -x {0.0 1.0 38 ------- null}
- -t 1.192 -s 0 -d 1 -p cbr -e 1000 -c 0 -i 24 -a 0 -x {0.0 1.0 24 ------- null}
h -t 1.192 -s 0 -d 1 -p cbr -e 1000 -c 0 -i 24 -a 0 -x {0.0 1.0 -1 ------- null}
r -t 1.194 -s 0 -d 1 -p cbr -e 1000 -c 0 -i 22 -a 0 -x {0.0 1.0 22 ------- null}
+ -t 1.195 -s 0 -d 1 -p cbr -e 1000 -c 0 -i 39 -a 0 -x {0.0 1.0 39 ------- null}
+ -t 1.2 -s 0 -d 1 -p cbr -e 1000 -c 0 -i 40 -a 0 -x {0.0 1.0 40 ------- null}
- -t 1.2 -s 0 -d 1 -p cbr -e 1000 -c 0 -i 25 -a 0 -x {0.0 1.0 25 ------- null}
h -t 1.2 -s 0 -d 1 -p cbr -e 1000 -c 0 -i 25 -a 0 -x {0.0 1.0 -1 ------- null}
r -t 1.202 -s 0 -d 1 -p cbr -e 1000 -c 0 -i 23 -a 0 -x {0.0 1.0 23 ------- null}
+ -t 1.205 -s 0 -d 1 -p cbr -e 1000 -c 0 -i 41 -a 0 -x {0.0 1.0 41 ------- null}
- -t 1.208 -s 0 -d 1 -p cbr -e 1000 -c 0 -i 26 -a 0 -x {0.0 1.0 26 ------- null}
h -t 1.208 -s 0 -d 1 -p cbr -e 1000 -c 0 -i 26 -a 0 -x {0.0 1.0 -1 ------- null}
+ -t 1.21 -s 0 -d 1 -p cbr -e 1000 -c 0 -i 42 -a 0 -x {0.0 1.0 42 ------- null}
r -t 1.21 -s 0 -d 1 -p cbr -e 1000 -c 0 -i 24 -a 0 -x {0.0 1.0 24 ------- null}
+ -t 1.215 -s 0 -d 1 -p cbr -e 1000 -c 0 -i 43 -a 0 -x {0.0 1.0 43 ------- null}
- -t 1.216 -s 0 -d 1 -p cbr -e 1000 -c 0 -i 27 -a 0 -x {0.0 1.0 27 ------- null}
h -t 1.216 -s 0 -d 1 -p cbr -e 1000 -c 0 -i 27 -a 0 -x {0.0 1.0 -1 ------- null}
r -t 1.218 -s 0 -d 1 -p cbr -e 1000 -c 0 -i 25 -a 0 -x {0.0 1.0 25 ------- null}
+ -t 1.22 -s 0 -d 1 -p cbr -e 1000 -c 0 -i 44 -a 0 -x {0.0 1.0 44 ------- null}
- -t 1.224 -s 0 -d 1 -p cbr -e 1000 -c 0 -i 28 -a 0 -x {0.0 1.0 28 ------- null}
h -t 1.224 -s 0 -d 1 -p cbr -e 1000 -c 0 -i 28 -a 0 -x {0.0 1.0 -1 ------- null}
+ -t 1.225 -s 0 -d 1 -p cbr -e 1000 -c 0 -i 45 -a 0 -x {0.0 1.0 45 ------- null}
r -t 1.226 -s 0 -d 1 -p cbr -e 1000 -c 0 -i 26 -a 0 -x {0.0 1.0 26 ------- null}
+ -t 1.23 -s 0 -d 1 -p cbr -e 1000 -c 0 -i 46 -a 0 -x {0.0 1.0 46 ------- null}
- -t 1.232 -s 0 -d 1 -p cbr -e 1000 -c 0 -i 29 -a 0 -x {0.0 1.0 29 ------- null}
h -t 1.232 -s 0 -d 1 -p cbr -e 1000 -c 0 -i 29 -a 0 -x {0.0 1.0 -1 ------- null}
r -t 1.234 -s 0 -d 1 -p cbr -e 1000 -c 0 -i 27 -a 0 -x {0.0 1.0 27 ------- null}
+ -t 1.23499999999999 -s 0 -d 1 -p cbr -e 1000 -c 0 -i 47 -a 0 -x {0.0 1.0 47 ------- null}
+ -t 1.23999999999999 -s 0 -d 1 -p cbr -e 1000 -c 0 -i 48 -a 0 -x {0.0 1.0 48 ------- null}
- -t 1.24 -s 0 -d 1 -p cbr -e 1000 -c 0 -i 30 -a 0 -x {0.0 1.0 30 ------- null}
h -t 1.24 -s 0 -d 1 -p cbr -e 1000 -c 0 -i 30 -a 0 -x {0.0 1.0 -1 ------- null}
r -t 1.242 -s 0 -d 1 -p cbr -e 1000 -c 0 -i 28 -a 0 -x {0.0 1.0 28 ------- null}
+ -t 1.24499999999999 -s 0 -d 1 -p cbr -e 1000 -c 0 -i 49 -a 0 -x {0.0 1.0 49 ------- null}
- -t 1.248 -s 0 -d 1 -p cbr -e 1000 -c 0 -i 31 -a 0 -x {0.0 1.0 31 ------- null}
h -t 1.248 -s 0 -d 1 -p cbr -e 1000 -c 0 -i 31 -a 0 -x {0.0 1.0 -1 ------- null}
+ -t 1.24999999999999 -s 0 -d 1 -p cbr -e 1000 -c 0 -i 50 -a 0 -x {0.0 1.0 50 ------- null}
r -t 1.25 -s 0 -d 1 -p cbr -e 1000 -c 0 -i 29 -a 0 -x {0.0 1.0 29 ------- null}
+ -t 1.25499999999999 -s 0 -d 1 -p cbr -e 1000 -c 0 -i 51 -a 0 -x {0.0 1.0 51 ------- null}
- -t 1.256 -s 0 -d 1 -p cbr -e 1000 -c 0 -i 32 -a 0 -x {0.0 1.0 32 ------- null}
h -t 1.256 -s 0 -d 1 -p cbr -e 1000 -c 0 -i 32 -a 0 -x {0.0 1.0 -1 ------- null}
r -t 1.258 -s 0 -d 1 -p cbr -e 1000 -c 0 -i 30 -a 0 -x {0.0 1.0 30 ------- null}
+ -t 1.25999999999999 -s 0 -d 1 -p cbr -e 1000 -c 0 -i 52 -a 0 -x {0.0 1.0 52 ------- null}
- -t 1.264 -s 0 -d 1 -p cbr -e 1000 -c 0 -i 33 -a 0 -x {0.0 1.0 33 ------- null}
h -t 1.264 -s 0 -d 1 -p cbr -e 1000 -c 0 -i 33 -a 0 -x {0.0 1.0 -1 ------- null}
+ -t 1.26499999999999 -s 0 -d 1 -p cbr -e 1000 -c 0 -i 53 -a 0 -x {0.0 1.0 53 ------- null}
r -t 1.266 -s 0 -d 1 -p cbr -e 1000 -c 0 -i 31 -a 0 -x {0.0 1.0 31 ------- null}
+ -t 1.26999999999999 -s 0 -d 1 -p cbr -e 1000 -c 0 -i 54 -a 0 -x {0.0 1.0 54 ------- null}
- -t 1.272 -s 0 -d 1 -p cbr -e 1000 -c 0 -i 34 -a 0 -x {0.0 1.0 34 ------- null}
h -t 1.272 -s 0 -d 1 -p cbr -e 1000 -c 0 -i 34 -a 0 -x {0.0 1.0 -1 ------- null}
r -t 1.274 -s 0 -d 1 -p cbr -e 1000 -c 0 -i 32 -a 0 -x {0.0 1.0 32 ------- null}
+ -t 1.27499999999999 -s 0 -d 1 -p cbr -e 1000 -c 0 -i 55 -a 0 -x {0.0 1.0 55 ------- null}
+ -t 1.27999999999999 -s 0 -d 1 -p cbr -e 1000 -c 0 -i 56 -a 0 -x {0.0 1.0 56 ------- null}
- -t 1.28 -s 0 -d 1 -p cbr -e 1000 -c 0 -i 35 -a 0 -x {0.0 1.0 35 ------- null}
h -t 1.28 -s 0 -d 1 -p cbr -e 1000 -c 0 -i 35 -a 0 -x {0.0 1.0 -1 ------- null}
r -t 1.282 -s 0 -d 1 -p cbr -e 1000 -c 0 -i 33 -a 0 -x {0.0 1.0 33 ------- null}
+ -t 1.28499999999999 -s 0 -d 1 -p cbr -e 1000 -c 0 -i 57 -a 0 -x {0.0 1.0 57 ------- null}
- -t 1.288 -s 0 -d 1 -p cbr -e 1000 -c 0 -i 36 -a 0 -x {0.0 1.0 36 ------- null}
h -t 1.288 -s 0 -d 1 -p cbr -e 1000 -c 0 -i 36 -a 0 -x {0.0 1.0 -1 ------- null}
+ -t 1.28999999999999 -s 0 -d 1 -p cbr -e 1000 -c 0 -i 58 -a 0 -x {0.0 1.0 58 ------- null}
r -t 1.29 -s 0 -d 1 -p cbr -e 1000 -c 0 -i 34 -a 0 -x {0.0 1.0 34 ------- null}
+ -t 1.29499999999999 -s 0 -d 1 -p cbr -e 1000 -c 0 -i 59 -a 0 -x {0.0 1.0 59 ------- null}
- -t 1.296 -s 0 -d 1 -p cbr -e 1000 -c 0 -i 37 -a 0 -x {0.0 1.0 37 ------- null}
h -t 1.296 -s 0 -d 1 -p cbr -e 1000 -c 0 -i 37 -a 0 -x {0.0 1.0 -1 ------- null}
r -t 1.298 -s 0 -d 1 -p cbr -e 1000 -c 0 -i 35 -a 0 -x {0.0 1.0 35 ------- null}
+ -t 1.29999999999999 -s 0 -d 1 -p cbr -e 1000 -c 0 -i 60 -a 0 -x {0.0 1.0 60 ------- null}
- -t 1.304 -s 0 -d 1 -p cbr -e 1000 -c 0 -i 38 -a 0 -x {0.0 1.0 38 ------- null}
h -t 1.304 -s 0 -d 1 -p cbr -e 1000 -c 0 -i 38 -a 0 -x {0.0 1.0 -1 ------- null}
+ -t 1.30499999999999 -s 0 -d 1 -p cbr -e 1000 -c 0 -i 61 -a 0 -x {0.0 1.0 61 ------- null}
r -t 1.306 -s 0 -d 1 -p cbr -e 1000 -c 0 -i 36 -a 0 -x {0.0 1.0 36 ------- null}
+ -t 1.30999999999999 -s 0 -d 1 -p cbr -e 1000 -c 0 -i 62 -a 0 -x {0.0 1.0 62 ------- null}
- -t 1.312 -s 0 -d 1 -p cbr -e 1000 -c 0 -i 39 -a 0 -x {0.0 1.0 39 ------- null}
h -t 1.312 -s 0 -d 1 -p cbr -e 1000 -c 0 -i 39 -a 0 -x {0.0 1.0 -1 ------- null}
r -t 1.314 -s 0 -d 1 -p cbr -e 1000 -c 0 -i 37 -a 0 -x {0.0 1.0 37 ------- null}
+ -t 1.31499999999999 -s 0 -d 1 -p cbr -e 1000 -c 0 -i 63 -a 0 -x {0.0 1.0 63 ------- null}
+ -t 1.31999999999999 -s 0 -d 1 -p cbr -e 1000 -c 0 -i 64 -a 0 -x {0.0 1.0 64 ------- null}
- -t 1.32 -s 0 -d 1 -p cbr -e 1000 -c 0 -i 40 -a 0 -x {0.0 1.0 40 ------- null}
h -t 1.32 -s 0 -d 1 -p cbr -e 1000 -c 0 -i 40 -a 0 -x {0.0 1.0 -1 ------- null}
r -t 1.322 -s 0 -d 1 -p cbr -e 1000 -c 0 -i 38 -a 0 -x {0.0 1.0 38 ------- null}
+ -t 1.32499999999999 -s 0 -d 1 -p cbr -e 1000 -c 0 -i 65 -a 0 -x {0.0 1.0 65 ------- null}
- -t 1.328 -s 0 -d 1 -p cbr -e 1000 -c 0 -i 41 -a 0 -x {0.0 1.0 41 ------- null}
h -t 1.328 -s 0 -d 1 -p cbr -e 1000 -c 0 -i 41 -a 0 -x {0.0 1.0 -1 ------- null}
+ -t 1.32999999999999 -s 0 -d 1 -p cbr -e 1000 -c 0 -i 66 -a 0 -x {0.0 1.0 66 ------- null}
r -t 1.33 -s 0 -d 1 -p cbr -e 1000 -c 0 -i 39 -a 0 -x {0.0 1.0 39 ------- null}
+ -t 1.33499999999999 -s 0 -d 1 -p cbr -e 1000 -c 0 -i 67 -a 0 -x {0.0 1.0 67 ------- null}
- -t 1.336 -s 0 -d 1 -p cbr -e 1000 -c 0 -i 42 -a 0 -x {0.0 1.0 42 ------- null}
h -t 1.336 -s 0 -d 1 -p cbr -e 1000 -c 0 -i 42 -a 0 -x {0.0 1.0 -1 ------- null}
r -t 1.338 -s 0 -d 1 -p cbr -e 1000 -c 0 -i 40 -a 0 -x {0.0 1.0 40 ------- null}
+ -t 1.33999999999999 -s 0 -d 1 -p cbr -e 1000 -c 0 -i 68 -a 0 -x {0.0 1.0 68 ------- null}
- -t 1.344 -s 0 -d 1 -p cbr -e 1000 -c 0 -i 43 -a 0 -x {0.0 1.0 43 ------- null}
h -t 1.344 -s 0 -d 1 -p cbr -e 1000 -c 0 -i 43 -a 0 -x {0.0 1.0 -1 ------- null}
+ -t 1.34499999999999 -s 0 -d 1 -p cbr -e 1000 -c 0 -i 69 -a 0 -x {0.0 1.0 69 ------- null}
r -t 1.346 -s 0 -d 1 -p cbr -e 1000 -c 0 -i 41 -a 0 -x {0.0 1.0 41 ------- null}
+ -t 1.34999999999999 -s 0 -d 1 -p cbr -e 1000 -c 0 -i 70 -a 0 -x {0.0 1.0 70 ------- null}
- -t 1.352 -s 0 -d 1 -p cbr -e 1000 -c 0 -i 44 -a 0 -x {0.0 1.0 44 ------- null}
h -t 1.352 -s 0 -d 1 -p cbr -e 1000 -c 0 -i 44 -a 0 -x {0.0 1.0 -1 ------- null}
r -t 1.354 -s 0 -d 1 -p cbr -e 1000 -c 0 -i 42 -a 0 -x {0.0 1.0 42 ------- null}
+ -t 1.35499999999999 -s 0 -d 1 -p cbr -e 1000 -c 0 -i 71 -a 0 -x {0.0 1.0 71 ------- null}
+ -t 1.35999999999999 -s 0 -d 1 -p cbr -e 1000 -c 0 -i 72 -a 0 -x {0.0 1.0 72 ------- null}
- -t 1.36 -s 0 -d 1 -p cbr -e 1000 -c 0 -i 45 -a 0 -x {0.0 1.0 45 ------- null}
h -t 1.36 -s 0 -d 1 -p cbr -e 1000 -c 0 -i 45 -a 0 -x {0.0 1.0 -1 ------- null}
r -t 1.362 -s 0 -d 1 -p cbr -e 1000 -c 0 -i 43 -a 0 -x {0.0 1.0 43 ------- null}
+ -t 1.36499999999999 -s 0 -d 1 -p cbr -e 1000 -c 0 -i 73 -a 0 -x {0.0 1.0 73 ------- null}
- -t 1.368 -s 0 -d 1 -p cbr -e 1000 -c 0 -i 46 -a 0 -x {0.0 1.0 46 ------- null}
h -t 1.368 -s 0 -d 1 -p cbr -e 1000 -c 0 -i 46 -a 0 -x {0.0 1.0 -1 ------- null}
+ -t 1.36999999999999 -s 0 -d 1 -p cbr -e 1000 -c 0 -i 74 -a 0 -x {0.0 1.0 74 ------- null}
r -t 1.37 -s 0 -d 1 -p cbr -e 1000 -c 0 -i 44 -a 0 -x {0.0 1.0 44 ------- null}
+ -t 1.37499999999999 -s 0 -d 1 -p cbr -e 1000 -c 0 -i 75 -a 0 -x {0.0 1.0 75 ------- null}
- -t 1.376 -s 0 -d 1 -p cbr -e 1000 -c 0 -i 47 -a 0 -x {0.0 1.0 47 ------- null}
h -t 1.376 -s 0 -d 1 -p cbr -e 1000 -c 0 -i 47 -a 0 -x {0.0 1.0 -1 ------- null}
r -t 1.378 -s 0 -d 1 -p cbr -e 1000 -c 0 -i 45 -a 0 -x {0.0 1.0 45 ------- null}
+ -t 1.37999999999999 -s 0 -d 1 -p cbr -e 1000 -c 0 -i 76 -a 0 -x {0.0 1.0 76 ------- null}
- -t 1.384 -s 0 -d 1 -p cbr -e 1000 -c 0 -i 48 -a 0 -x {0.0 1.0 48 ------- null}
h -t 1.384 -s 0 -d 1 -p cbr -e 1000 -c 0 -i 48 -a 0 -x {0.0 1.0 -1 ------- null}
+ -t 1.38499999999999 -s 0 -d 1 -p cbr -e 1000 -c 0 -i 77 -a 0 -x {0.0 1.0 77 ------- null}
r -t 1.386 -s 0 -d 1 -p cbr -e 1000 -c 0 -i 46 -a 0 -x {0.0 1.0 46 ------- null}
+ -t 1.38999999999999 -s 0 -d 1 -p cbr -e 1000 -c 0 -i 78 -a 0 -x {0.0 1.0 78 ------- null}
- -t 1.392 -s 0 -d 1 -p cbr -e 1000 -c 0 -i 49 -a 0 -x {0.0 1.0 49 ------- null}
h -t 1.392 -s 0 -d 1 -p cbr -e 1000 -c 0 -i 49 -a 0 -x {0.0 1.0 -1 ------- null}
r -t 1.394 -s 0 -d 1 -p cbr -e 1000 -c 0 -i 47 -a 0 -x {0.0 1.0 47 ------- null}
+ -t 1.39499999999999 -s 0 -d 1 -p cbr -e 1000 -c 0 -i 79 -a 0 -x {0.0 1.0 79 ------- null}
+ -t 1.39999999999999 -s 0 -d 1 -p cbr -e 1000 -c 0 -i 80 -a 0 -x {0.0 1.0 80 ------- null}
- -t 1.4 -s 0 -d 1 -p cbr -e 1000 -c 0 -i 50 -a 0 -x {0.0 1.0 50 ------- null}
h -t 1.4 -s 0 -d 1 -p cbr -e 1000 -c 0 -i 50 -a 0 -x {0.0 1.0 -1 ------- null}
r -t 1.402 -s 0 -d 1 -p cbr -e 1000 -c 0 -i 48 -a 0 -x {0.0 1.0 48 ------- null}
+ -t 1.40499999999999 -s 0 -d 1 -p cbr -e 1000 -c 0 -i 81 -a 0 -x {0.0 1.0 81 ------- null}
- -t 1.408 -s 0 -d 1 -p cbr -e 1000 -c 0 -i 51 -a 0 -x {0.0 1.0 51 ------- null}
h -t 1.408 -s 0 -d 1 -p cbr -e 1000 -c 0 -i 51 -a 0 -x {0.0 1.0 -1 ------- null}
+ -t 1.40999999999999 -s 0 -d 1 -p cbr -e 1000 -c 0 -i 82 -a 0 -x {0.0 1.0 82 ------- null}
r -t 1.41 -s 0 -d 1 -p cbr -e 1000 -c 0 -i 49 -a 0 -x {0.0 1.0 49 ------- null}
+ -t 1.41499999999999 -s 0 -d 1 -p cbr -e 1000 -c 0 -i 83 -a 0 -x {0.0 1.0 83 ------- null}
- -t 1.416 -s 0 -d 1 -p cbr -e 1000 -c 0 -i 52 -a 0 -x {0.0 1.0 52 ------- null}
h -t 1.416 -s 0 -d 1 -p cbr -e 1000 -c 0 -i 52 -a 0 -x {0.0 1.0 -1 ------- null}
r -t 1.418 -s 0 -d 1 -p cbr -e 1000 -c 0 -i 50 -a 0 -x {0.0 1.0 50 ------- null}
+ -t 1.41999999999999 -s 0 -d 1 -p cbr -e 1000 -c 0 -i 84 -a 0 -x {0.0 1.0 84 ------- null}
- -t 1.424 -s 0 -d 1 -p cbr -e 1000 -c 0 -i 53 -a 0 -x {0.0 1.0 53 ------- null}
h -t 1.424 -s 0 -d 1 -p cbr -e 1000 -c 0 -i 53 -a 0 -x {0.0 1.0 -1 ------- null}
+ -t 1.42499999999999 -s 0 -d 1 -p cbr -e 1000 -c 0 -i 85 -a 0 -x {0.0 1.0 85 ------- null}
r -t 1.426 -s 0 -d 1 -p cbr -e 1000 -c 0 -i 51 -a 0 -x {0.0 1.0 51 ------- null}
+ -t 1.42999999999999 -s 0 -d 1 -p cbr -e 1000 -c 0 -i 86 -a 0 -x {0.0 1.0 86 ------- null}
- -t 1.432 -s 0 -d 1 -p cbr -e 1000 -c 0 -i 54 -a 0 -x {0.0 1.0 54 ------- null}
h -t 1.432 -s 0 -d 1 -p cbr -e 1000 -c 0 -i 54 -a 0 -x {0.0 1.0 -1 ------- null}
r -t 1.434 -s 0 -d 1 -p cbr -e 1000 -c 0 -i 52 -a 0 -x {0.0 1.0 52 ------- null}
+ -t 1.43499999999999 -s 0 -d 1 -p cbr -e 1000 -c 0 -i 87 -a 0 -x {0.0 1.0 87 ------- null}
+ -t 1.43999999999999 -s 0 -d 1 -p cbr -e 1000 -c 0 -i 88 -a 0 -x {0.0 1.0 88 ------- null}
- -t 1.44 -s 0 -d 1 -p cbr -e 1000 -c 0 -i 55 -a 0 -x {0.0 1.0 55 ------- null}
h -t 1.44 -s 0 -d 1 -p cbr -e 1000 -c 0 -i 55 -a 0 -x {0.0 1.0 -1 ------- null}
r -t 1.442 -s 0 -d 1 -p cbr -e 1000 -c 0 -i 53 -a 0 -x {0.0 1.0 53 ------- null}
+ -t 1.44499999999999 -s 0 -d 1 -p cbr -e 1000 -c 0 -i 89 -a 0 -x {0.0 1.0 89 ------- null}
- -t 1.448 -s 0 -d 1 -p cbr -e 1000 -c 0 -i 56 -a 0 -x {0.0 1.0 56 ------- null}
h -t 1.448 -s 0 -d 1 -p cbr -e 1000 -c 0 -i 56 -a 0 -x {0.0 1.0 -1 ------- null}
+ -t 1.44999999999999 -s 0 -d 1 -p cbr -e 1000 -c 0 -i 90 -a 0 -x {0.0 1.0 90 ------- null}
r -t 1.45 -s 0 -d 1 -p cbr -e 1000 -c 0 -i 54 -a 0 -x {0.0 1.0 54 ------- null}
+ -t 1.45499999999999 -s 0 -d 1 -p cbr -e 1000 -c 0 -i 91 -a 0 -x {0.0 1.0 91 ------- null}
- -t 1.456 -s 0 -d 1 -p cbr -e 1000 -c 0 -i 57 -a 0 -x {0.0 1.0 57 ------- null}
h -t 1.456 -s 0 -d 1 -p cbr -e 1000 -c 0 -i 57 -a 0 -x {0.0 1.0 -1 ------- null}
r -t 1.458 -s 0 -d 1 -p cbr -e 1000 -c 0 -i 55 -a 0 -x {0.0 1.0 55 ------- null}
+ -t 1.45999999999999 -s 0 -d 1 -p cbr -e 1000 -c 0 -i 92 -a 0 -x {0.0 1.0 92 ------- null}
- -t 1.464 -s 0 -d 1 -p cbr -e 1000 -c 0 -i 58 -a 0 -x {0.0 1.0 58 ------- null}
h -t 1.464 -s 0 -d 1 -p cbr -e 1000 -c 0 -i 58 -a 0 -x {0.0 1.0 -1 ------- null}
+ -t 1.46499999999999 -s 0 -d 1 -p cbr -e 1000 -c 0 -i 93 -a 0 -x {0.0 1.0 93 ------- null}
r -t 1.466 -s 0 -d 1 -p cbr -e 1000 -c 0 -i 56 -a 0 -x {0.0 1.0 56 ------- null}
+ -t 1.46999999999999 -s 0 -d 1 -p cbr -e 1000 -c 0 -i 94 -a 0 -x {0.0 1.0 94 ------- null}
- -t 1.472 -s 0 -d 1 -p cbr -e 1000 -c 0 -i 59 -a 0 -x {0.0 1.0 59 ------- null}
h -t 1.472 -s 0 -d 1 -p cbr -e 1000 -c 0 -i 59 -a 0 -x {0.0 1.0 -1 ------- null}
r -t 1.474 -s 0 -d 1 -p cbr -e 1000 -c 0 -i 57 -a 0 -x {0.0 1.0 57 ------- null}
+ -t 1.47499999999999 -s 0 -d 1 -p cbr -e 1000 -c 0 -i 95 -a 0 -x {0.0 1.0 95 ------- null}
+ -t 1.47999999999999 -s 0 -d 1 -p cbr -e 1000 -c 0 -i 96 -a 0 -x {0.0 1.0 96 ------- null}
- -t 1.48 -s 0 -d 1 -p cbr -e 1000 -c 0 -i 60 -a 0 -x {0.0 1.0 60 ------- null}
h -t 1.48 -s 0 -d 1 -p cbr -e 1000 -c 0 -i 60 -a 0 -x {0.0 1.0 -1 ------- null}
r -t 1.482 -s 0 -d 1 -p cbr -e 1000 -c 0 -i 58 -a 0 -x {0.0 1.0 58 ------- null}
+ -t 1.48499999999999 -s 0 -d 1 -p cbr -e 1000 -c 0 -i 97 -a 0 -x {0.0 1.0 97 ------- null}
- -t 1.488 -s 0 -d 1 -p cbr -e 1000 -c 0 -i 61 -a 0 -x {0.0 1.0 61 ------- null}
h -t 1.488 -s 0 -d 1 -p cbr -e 1000 -c 0 -i 61 -a 0 -x {0.0 1.0 -1 ------- null}
+ -t 1.48999999999999 -s 0 -d 1 -p cbr -e 1000 -c 0 -i 98 -a 0 -x {0.0 1.0 98 ------- null}
r -t 1.49 -s 0 -d 1 -p cbr -e 1000 -c 0 -i 59 -a 0 -x {0.0 1.0 59 ------- null}
+ -t 1.49499999999999 -s 0 -d 1 -p cbr -e 1000 -c 0 -i 99 -a 0 -x {0.0 1.0 99 ------- null}
- -t 1.496 -s 0 -d 1 -p cbr -e 1000 -c 0 -i 62 -a 0 -x {0.0 1.0 62 ------- null}
h -t 1.496 -s 0 -d 1 -p cbr -e 1000 -c 0 -i 62 -a 0 -x {0.0 1.0 -1 ------- null}
r -t 1.498 -s 0 -d 1 -p cbr -e 1000 -c 0 -i 60 -a 0 -x {0.0 1.0 60 ------- null}
+ -t 1.49999999999999 -s 0 -d 1 -p cbr -e 1000 -c 0 -i 100 -a 0 -x {0.0 1.0 100 ------- null}
- -t 1.504 -s 0 -d 1 -p cbr -e 1000 -c 0 -i 63 -a 0 -x {0.0 1.0 63 ------- null}
h -t 1.504 -s 0 -d 1 -p cbr -e 1000 -c 0 -i 63 -a 0 -x {0.0 1.0 -1 ------- null}
+ -t 1.50499999999999 -s 0 -d 1 -p cbr -e 1000 -c 0 -i 101 -a 0 -x {0.0 1.0 101 ------- null}
r -t 1.506 -s 0 -d 1 -p cbr -e 1000 -c 0 -i 61 -a 0 -x {0.0 1.0 61 ------- null}
+ -t 1.50999999999999 -s 0 -d 1 -p cbr -e 1000 -c 0 -i 102 -a 0 -x {0.0 1.0 102 ------- null}
- -t 1.512 -s 0 -d 1 -p cbr -e 1000 -c 0 -i 64 -a 0 -x {0.0 1.0 64 ------- null}
h -t 1.512 -s 0 -d 1 -p cbr -e 1000 -c 0 -i 64 -a 0 -x {0.0 1.0 -1 ------- null}
r -t 1.514 -s 0 -d 1 -p cbr -e 1000 -c 0 -i 62 -a 0 -x {0.0 1.0 62 ------- null}
+ -t 1.51499999999999 -s 0 -d 1 -p cbr -e 1000 -c 0 -i 103 -a 0 -x {0.0 1.0 103 ------- null}
+ -t 1.51999999999999 -s 0 -d 1 -p cbr -e 1000 -c 0 -i 104 -a 0 -x {0.0 1.0 104 ------- null}
- -t 1.52 -s 0 -d 1 -p cbr -e 1000 -c 0 -i 65 -a 0 -x {0.0 1.0 65 ------- null}
h -t 1.52 -s 0 -d 1 -p cbr -e 1000 -c 0 -i 65 -a 0 -x {0.0 1.0 -1 ------- null}
r -t 1.522 -s 0 -d 1 -p cbr -e 1000 -c 0 -i 63 -a 0 -x {0.0 1.0 63 ------- null}
+ -t 1.52499999999999 -s 0 -d 1 -p cbr -e 1000 -c 0 -i 105 -a 0 -x {0.0 1.0 105 ------- null}
- -t 1.528 -s 0 -d 1 -p cbr -e 1000 -c 0 -i 66 -a 0 -x {0.0 1.0 66 ------- null}
h -t 1.528 -s 0 -d 1 -p cbr -e 1000 -c 0 -i 66 -a 0 -x {0.0 1.0 -1 ------- null}
+ -t 1.52999999999999 -s 0 -d 1 -p cbr -e 1000 -c 0 -i 106 -a 0 -x {0.0 1.0 106 ------- null}
r -t 1.53 -s 0 -d 1 -p cbr -e 1000 -c 0 -i 64 -a 0 -x {0.0 1.0 64 ------- null}
+ -t 1.53499999999999 -s 0 -d 1 -p cbr -e 1000 -c 0 -i 107 -a 0 -x {0.0 1.0 107 ------- null}
- -t 1.536 -s 0 -d 1 -p cbr -e 1000 -c 0 -i 67 -a 0 -x {0.0 1.0 67 ------- null}
h -t 1.536 -s 0 -d 1 -p cbr -e 1000 -c 0 -i 67 -a 0 -x {0.0 1.0 -1 ------- null}
r -t 1.538 -s 0 -d 1 -p cbr -e 1000 -c 0 -i 65 -a 0 -x {0.0 1.0 65 ------- null}
+ -t 1.53999999999999 -s 0 -d 1 -p cbr -e 1000 -c 0 -i 108 -a 0 -x {0.0 1.0 108 ------- null}
- -t 1.544 -s 0 -d 1 -p cbr -e 1000 -c 0 -i 68 -a 0 -x {0.0 1.0 68 ------- null}
h -t 1.544 -s 0 -d 1 -p cbr -e 1000 -c 0 -i 68 -a 0 -x {0.0 1.0 -1 ------- null}
+ -t 1.54499999999999 -s 0 -d 1 -p cbr -e 1000 -c 0 -i 109 -a 0 -x {0.0 1.0 109 ------- null}
r -t 1.546 -s 0 -d 1 -p cbr -e 1000 -c 0 -i 66 -a 0 -x {0.0 1.0 66 ------- null}
+ -t 1.54999999999999 -s 0 -d 1 -p cbr -e 1000 -c 0 -i 110 -a 0 -x {0.0 1.0 110 ------- null}
- -t 1.552 -s 0 -d 1 -p cbr -e 1000 -c 0 -i 69 -a 0 -x {0.0 1.0 69 ------- null}
h -t 1.552 -s 0 -d 1 -p cbr -e 1000 -c 0 -i 69 -a 0 -x {0.0 1.0 -1 ------- null}
r -t 1.554 -s 0 -d 1 -p cbr -e 1000 -c 0 -i 67 -a 0 -x {0.0 1.0 67 ------- null}
+ -t 1.55499999999999 -s 0 -d 1 -p cbr -e 1000 -c 0 -i 111 -a 0 -x {0.0 1.0 111 ------- null}
+ -t 1.55999999999999 -s 0 -d 1 -p cbr -e 1000 -c 0 -i 112 -a 0 -x {0.0 1.0 112 ------- null}
- -t 1.56 -s 0 -d 1 -p cbr -e 1000 -c 0 -i 70 -a 0 -x {0.0 1.0 70 ------- null}
h -t 1.56 -s 0 -d 1 -p cbr -e 1000 -c 0 -i 70 -a 0 -x {0.0 1.0 -1 ------- null}
r -t 1.562 -s 0 -d 1 -p cbr -e 1000 -c 0 -i 68 -a 0 -x {0.0 1.0 68 ------- null}
+ -t 1.56499999999999 -s 0 -d 1 -p cbr -e 1000 -c 0 -i 113 -a 0 -x {0.0 1.0 113 ------- null}
- -t 1.568 -s 0 -d 1 -p cbr -e 1000 -c 0 -i 71 -a 0 -x {0.0 1.0 71 ------- null}
h -t 1.568 -s 0 -d 1 -p cbr -e 1000 -c 0 -i 71 -a 0 -x {0.0 1.0 -1 ------- null}
+ -t 1.56999999999999 -s 0 -d 1 -p cbr -e 1000 -c 0 -i 114 -a 0 -x {0.0 1.0 114 ------- null}
r -t 1.57 -s 0 -d 1 -p cbr -e 1000 -c 0 -i 69 -a 0 -x {0.0 1.0 69 ------- null}
+ -t 1.57499999999999 -s 0 -d 1 -p cbr -e 1000 -c 0 -i 115 -a 0 -x {0.0 1.0 115 ------- null}
- -t 1.576 -s 0 -d 1 -p cbr -e 1000 -c 0 -i 72 -a 0 -x {0.0 1.0 72 ------- null}
h -t 1.576 -s 0 -d 1 -p cbr -e 1000 -c 0 -i 72 -a 0 -x {0.0 1.0 -1 ------- null}
r -t 1.578 -s 0 -d 1 -p cbr -e 1000 -c 0 -i 70 -a 0 -x {0.0 1.0 70 ------- null}
+ -t 1.57999999999999 -s 0 -d 1 -p cbr -e 1000 -c 0 -i 116 -a 0 -x {0.0 1.0 116 ------- null}
- -t 1.584 -s 0 -d 1 -p cbr -e 1000 -c 0 -i 73 -a 0 -x {0.0 1.0 73 ------- null}
h -t 1.584 -s 0 -d 1 -p cbr -e 1000 -c 0 -i 73 -a 0 -x {0.0 1.0 -1 ------- null}
+ -t 1.58499999999999 -s 0 -d 1 -p cbr -e 1000 -c 0 -i 117 -a 0 -x {0.0 1.0 117 ------- null}
r -t 1.586 -s 0 -d 1 -p cbr -e 1000 -c 0 -i 71 -a 0 -x {0.0 1.0 71 ------- null}
+ -t 1.58999999999999 -s 0 -d 1 -p cbr -e 1000 -c 0 -i 118 -a 0 -x {0.0 1.0 118 ------- null}
- -t 1.592 -s 0 -d 1 -p cbr -e 1000 -c 0 -i 74 -a 0 -x {0.0 1.0 74 ------- null}
h -t 1.592 -s 0 -d 1 -p cbr -e 1000 -c 0 -i 74 -a 0 -x {0.0 1.0 -1 ------- null}
r -t 1.594 -s 0 -d 1 -p cbr -e 1000 -c 0 -i 72 -a 0 -x {0.0 1.0 72 ------- null}
+ -t 1.59499999999999 -s 0 -d 1 -p cbr -e 1000 -c 0 -i 119 -a 0 -x {0.0 1.0 119 ------- null}
+ -t 1.59999999999999 -s 0 -d 1 -p cbr -e 1000 -c 0 -i 120 -a 0 -x {0.0 1.0 120 ------- null}
- -t 1.6 -s 0 -d 1 -p cbr -e 1000 -c 0 -i 75 -a 0 -x {0.0 1.0 75 ------- null}
h -t 1.6 -s 0 -d 1 -p cbr -e 1000 -c 0 -i 75 -a 0 -x {0.0 1.0 -1 ------- null}
r -t 1.602 -s 0 -d 1 -p cbr -e 1000 -c 0 -i 73 -a 0 -x {0.0 1.0 73 ------- null}
+ -t 1.60499999999999 -s 0 -d 1 -p cbr -e 1000 -c 0 -i 121 -a 0 -x {0.0 1.0 121 ------- null}
- -t 1.608 -s 0 -d 1 -p cbr -e 1000 -c 0 -i 76 -a 0 -x {0.0 1.0 76 ------- null}
h -t 1.608 -s 0 -d 1 -p cbr -e 1000 -c 0 -i 76 -a 0 -x {0.0 1.0 -1 ------- null}
+ -t 1.60999999999999 -s 0 -d 1 -p cbr -e 1000 -c 0 -i 122 -a 0 -x {0.0 1.0 122 ------- null}
r -t 1.61 -s 0 -d 1 -p cbr -e 1000 -c 0 -i 74 -a 0 -x {0.0 1.0 74 ------- null}
+ -t 1.61499999999999 -s 0 -d 1 -p cbr -e 1000 -c 0 -i 123 -a 0 -x {0.0 1.0 123 ------- null}
- -t 1.616 -s 0 -d 1 -p cbr -e 1000 -c 0 -i 77 -a 0 -x {0.0 1.0 77 ------- null}
h -t 1.616 -s 0 -d 1 -p cbr -e 1000 -c 0 -i 77 -a 0 -x {0.0 1.0 -1 ------- null}
r -t 1.618 -s 0 -d 1 -p cbr -e 1000 -c 0 -i 75 -a 0 -x {0.0 1.0 75 ------- null}
+ -t 1.61999999999999 -s 0 -d 1 -p cbr -e 1000 -c 0 -i 124 -a 0 -x {0.0 1.0 124 ------- null}