V -t * -v 1.0a5 -a 0
A -t * -n 1 -p 0 -o 0x7fffffff -c 30 -a 1
A -t * -h 1 -m 1073741823 -s 0
c -t * -i 2 -n Blue
n -t * -a 0 -s 0 -S UP -v circle -c black -i black
n -t * -a 1 -s 1 -S UP -v circle -c black -i black
n -t * -a 2 -s 2 -S UP -v circle -c black -i black
n -t * -a 3 -s 3 -S UP -v circle -c black -i black
l -t * -s 0 -d 2 -S UP -r 2000000 -D 0.01 -c black -o right-down
l -t * -s 1 -d 2 -S UP -r 1000000 -D 0.02 -c black -o right-up
l -t * -s 2 -d 3 -S UP -r 2000000 -D 0.01 -c black -o right
q -t * -s 3 -d 2 -a 0.5
q -t * -s 2 -d 3 -a 0.5
+ -t 0.1 -s 0 -d 2 -p cbr -e 1000 -c 2 -i 0 -a 2 -x {0.0 3.0 0 ------- null}
- -t 0.1 -s 0 -d 2 -p cbr -e 1000 -c 2 -i 0 -a 2 -x {0.0 3.0 0 ------- null}
h -t 0.1 -s 0 -d 2 -p cbr -e 1000 -c 2 -i 0 -a 2 -x {0.0 3.0 -1 ------- null}
+ -t 0.108 -s 0 -d 2 -p cbr -e 1000 -c 2 -i 1 -a 2 -x {0.0 3.0 1 ------- null}
- -t 0.108 -s 0 -d 2 -p cbr -e 1000 -c 2 -i 1 -a 2 -x {0.0 3.0 1 ------- null}
h -t 0.108 -s 0 -d 2 -p cbr -e 1000 -c 2 -i 1 -a 2 -x {0.0 3.0 -1 ------- null}
r -t 0.114 -s 0 -d 2 -p cbr -e 1000 -c 2 -i 0 -a 2 -x {0.0 3.0 0 ------- null}
+ -t 0.114 -s 2 -d 3 -p cbr -e 1000 -c 2 -i 0 -a 2 -x {0.0 3.0 0 ------- null}
- -t 0.114 -s 2 -d 3 -p cbr -e 1000 -c 2 -i 0 -a 2 -x {0.0 3.0 0 ------- null}
h -t 0.114 -s 2 -d 3 -p cbr -e 1000 -c 2 -i 0 -a 2 -x {0.0 3.0 -1 ------- null}
+ -t 0.116 -s 0 -d 2 -p cbr -e 1000 -c 2 -i 2 -a 2 -x {0.0 3.0 2 ------- null}
- -t 0.116 -s 0 -d 2 -p cbr -e 1000 -c 2 -i 2 -a 2 -x {0.0 3.0 2 ------- null}
h -t 0.116 -s 0 -d 2 -p cbr -e 1000 -c 2 -i 2 -a 2 -x {0.0 3.0 -1 ------- null}
r -t 0.122 -s 0 -d 2 -p cbr -e 1000 -c 2 -i 1 -a 2 -x {0.0 3.0 1 ------- null}
+ -t 0.122 -s 2 -d 3 -p cbr -e 1000 -c 2 -i 1 -a 2 -x {0.0 3.0 1 ------- null}
- -t 0.122 -s 2 -d 3 -p cbr -e 1000 -c 2 -i 1 -a 2 -x {0.0 3.0 1 ------- null}
h -t 0.122 -s 2 -d 3 -p cbr -e 1000 -c 2 -i 1 -a 2 -x {0.0 3.0 -1 ------- null}
+ -t 0.124 -s 0 -d 2 -p cbr -e 1000 -c 2 -i 3 -a 2 -x {0.0 3.0 3 ------- null}
- -t 0.124 -s 0 -d 2 -p cbr -e 1000 -c 2 -i 3 -a 2 -x {0.0 3.0 3 ------- null}
h -t 0.124 -s 0 -d 2 -p cbr -e 1000 -c 2 -i 3 -a 2 -x {0.0 3.0 -1 ------- null}
r -t 0.128 -s 2 -d 3 -p cbr -e 1000 -c 2 -i 0 -a 2 -x {0.0 3.0 0 ------- null}
r -t 0.13 -s 0 -d 2 -p cbr -e 1000 -c 2 -i 2 -a 2 -x {0.0 3.0 2 ------- null}
+ -t 0.13 -s 2 -d 3 -p cbr -e 1000 -c 2 -i 2 -a 2 -x {0.0 3.0 2 ------- null}
- -t 0.13 -s 2 -d 3 -p cbr -e 1000 -c 2 -i 2 -a 2 -x {0.0 3.0 2 ------- null}
h -t 0.13 -s 2 -d 3 -p cbr -e 1000 -c 2 -i 2 -a 2 -x {0.0 3.0 -1 ------- null}
+ -t 0.132 -s 0 -d 2 -p cbr -e 1000 -c 2 -i 4 -a 2 -x {0.0 3.0 4 ------- null}
- -t 0.132 -s 0 -d 2 -p cbr -e 1000 -c 2 -i 4 -a 2 -x {0.0 3.0 4 ------- null}
h -t 0.132 -s 0 -d 2 -p cbr -e 1000 -c 2 -i 4 -a 2 -x {0.0 3.0 -1 ------- null}
r -t 0.136 -s 2 -d 3 -p cbr -e 1000 -c 2 -i 1 -a 2 -x {0.0 3.0 1 ------- null}
r -t 0.138 -s 0 -d 2 -p cbr -e 1000 -c 2 -i 3 -a 2 -x {0.0 3.0 3 ------- null}
+ -t 0.138 -s 2 -d 3 -p cbr -e 1000 -c 2 -i 3 -a 2 -x {0.0 3.0 3 ------- null}
- -t 0.138 -s 2 -d 3 -p cbr -e 1000 -c 2 -i 3 -a 2 -x {0.0 3.0 3 ------- null}
h -t 0.138 -s 2 -d 3 -p cbr -e 1000 -c 2 -i 3 -a 2 -x {0.0 3.0 -1 ------- null}
+ -t 0.14 -s 0 -d 2 -p cbr -e 1000 -c 2 -i 5 -a 2 -x {0.0 3.0 5 ------- null}
- -t 0.14 -s 0 -d 2 -p cbr -e 1000 -c 2 -i 5 -a 2 -x {0.0 3.0 5 ------- null}
h -t 0.14 -s 0 -d 2 -p cbr -e 1000 -c 2 -i 5 -a 2 -x {0.0 3.0 -1 ------- null}
r -t 0.144 -s 2 -d 3 -p cbr -e 1000 -c 2 -i 2 -a 2 -x {0.0 3.0 2 ------- null}
r -t 0.146 -s 0 -d 2 -p cbr -e 1000 -c 2 -i 4 -a 2 -x {0.0 3.0 4 ------- null}
+ -t 0.146 -s 2 -d 3 -p cbr -e 1000 -c 2 -i 4 -a 2 -x {0.0 3.0 4 ------- null}
- -t 0.146 -s 2 -d 3 -p cbr -e 1000 -c 2 -i 4 -a 2 -x {0.0 3.0 4 ------- null}
h -t 0.146 -s 2 -d 3 -p cbr -e 1000 -c 2 -i 4 -a 2 -x {0.0 3.0 -1 ------- null}
+ -t 0.148 -s 0 -d 2 -p cbr -e 1000 -c 2 -i 6 -a 2 -x {0.0 3.0 6 ------- null}
- -t 0.148 -s 0 -d 2 -p cbr -e 1000 -c 2 -i 6 -a 2 -x {0.0 3.0 6 ------- null}
h -t 0.148 -s 0 -d 2 -p cbr -e 1000 -c 2 -i 6 -a 2 -x {0.0 3.0 -1 ------- null}
+ -t 0.15 -s 1 -d 2 -p cbr -e 1000 -c 0 -i 7 -a 0 -x {1.0 3.0 0 ------- null}
- -t 0.15 -s 1 -d 2 -p cbr -e 1000 -c 0 -i 7 -a 0 -x {1.0 3.0 0 ------- null}
h -t 0.15 -s 1 -d 2 -p cbr -e 1000 -c 0 -i 7 -a 0 -x {1.0 3.0 -1 ------- null}
r -t 0.152 -s 2 -d 3 -p cbr -e 1000 -c 2 -i 3 -a 2 -x {0.0 3.0 3 ------- null}
r -t 0.154 -s 0 -d 2 -p cbr -e 1000 -c 2 -i 5 -a 2 -x {0.0 3.0 5 ------- null}
+ -t 0.154 -s 2 -d 3 -p cbr -e 1000 -c 2 -i 5 -a 2 -x {0.0 3.0 5 ------- null}
- -t 0.154 -s 2 -d 3 -p cbr -e 1000 -c 2 -i 5 -a 2 -x {0.0 3.0 5 ------- null}
h -t 0.154 -s 2 -d 3 -p cbr -e 1000 -c 2 -i 5 -a 2 -x {0.0 3.0 -1 ------- null}
+ -t 0.156 -s 0 -d 2 -p cbr -e 1000 -c 2 -i 8 -a 2 -x {0.0 3.0 7 ------- null}
- -t 0.156 -s 0 -d 2 -p cbr -e 1000 -c 2 -i 8 -a 2 -x {0.0 3.0 7 ------- null}
h -t 0.156 -s 0 -d 2 -p cbr -e 1000 -c 2 -i 8 -a 2 -x {0.0 3.0 -1 ------- null}
+ -t 0.158 -s 1 -d 2 -p cbr -e 1000 -c 0 -i 9 -a 0 -x {1.0 3.0 1 ------- null}
- -t 0.158 -s 1 -d 2 -p cbr -e 1000 -c 0 -i 9 -a 0 -x {1.0 3.0 1 ------- null}
h -t 0.158 -s 1 -d 2 -p cbr -e 1000 -c 0 -i 9 -a 0 -x {1.0 3.0 -1 ------- null}
r -t 0.16 -s 2 -d 3 -p cbr -e 1000 -c 2 -i 4 -a 2 -x {0.0 3.0 4 ------- null}
r -t 0.162 -s 0 -d 2 -p cbr -e 1000 -c 2 -i 6 -a 2 -x {0.0 3.0 6 ------- null}
+ -t 0.162 -s 2 -d 3 -p cbr -e 1000 -c 2 -i 6 -a 2 -x {0.0 3.0 6 ------- null}
- -t 0.162 -s 2 -d 3 -p cbr -e 1000 -c 2 -i 6 -a 2 -x {0.0 3.0 6 ------- null}
h -t 0.162 -s 2 -d 3 -p cbr -e 1000 -c 2 -i 6 -a 2 -x {0.0 3.0 -1 ------- null}
+ -t 0.164 -s 0 -d 2 -p cbr -e 1000 -c 2 -i 10 -a 2 -x {0.0 3.0 8 ------- null}
- -t 0.164 -s 0 -d 2 -p cbr -e 1000 -c 2 -i 10 -a 2 -x {0.0 3.0 8 ------- null}
h -t 0.164 -s 0 -d 2 -p cbr -e 1000 -c 2 -i 10 -a 2 -x {0.0 3.0 -1 ------- null}
+ -t 0.166 -s 1 -d 2 -p cbr -e 1000 -c 0 -i 11 -a 0 -x {1.0 3.0 2 ------- null}
- -t 0.166 -s 1 -d 2 -p cbr -e 1000 -c 0 -i 11 -a 0 -x {1.0 3.0 2 ------- null}
h -t 0.166 -s 1 -d 2 -p cbr -e 1000 -c 0 -i 11 -a 0 -x {1.0 3.0 -1 ------- null}
r -t 0.168 -s 2 -d 3 -p cbr -e 1000 -c 2 -i 5 -a 2 -x {0.0 3.0 5 ------- null}
r -t 0.17 -s 0 -d 2 -p cbr -e 1000 -c 2 -i 8 -a 2 -x {0.0 3.0 7 ------- null}
+ -t 0.17 -s 2 -d 3 -p cbr -e 1000 -c 2 -i 8 -a 2 -x {0.0 3.0 7 ------- null}
- -t 0.17 -s 2 -d 3 -p cbr -e 1000 -c 2 -i 8 -a 2 -x {0.0 3.0 7 ------- null}
h -t 0.17 -s 2 -d 3 -p cbr -e 1000 -c 2 -i 8 -a 2 -x {0.0 3.0 -1 ------- null}
+ -t 0.172 -s 0 -d 2 -p cbr -e 1000 -c 2 -i 12 -a 2 -x {0.0 3.0 9 ------- null}
- -t 0.172 -s 0 -d 2 -p cbr -e 1000 -c 2 -i 12 -a 2 -x {0.0 3.0 9 ------- null}
h -t 0.172 -s 0 -d 2 -p cbr -e 1000 -c 2 -i 12 -a 2 -x {0.0 3.0 -1 ------- null}
+ -t 0.174 -s 1 -d 2 -p cbr -e 1000 -c 0 -i 13 -a 0 -x {1.0 3.0 3 ------- null}
- -t 0.174 -s 1 -d 2 -p cbr -e 1000 -c 0 -i 13 -a 0 -x {1.0 3.0 3 ------- null}
h -t 0.174 -s 1 -d 2 -p cbr -e 1000 -c 0 -i 13 -a 0 -x {1.0 3.0 -1 ------- null}
r -t 0.176 -s 2 -d 3 -p cbr -e 1000 -c 2 -i 6 -a 2 -x {0.0 3.0 6 ------- null}
r -t 0.178 -s 1 -d 2 -p cbr -e 1000 -c 0 -i 7 -a 0 -x {1.0 3.0 0 ------- null}
+ -t 0.178 -s 2 -d 3 -p cbr -e 1000 -c 0 -i 7 -a 0 -x {1.0 3.0 0 ------- null}
- -t 0.178 -s 2 -d 3 -p cbr -e 1000 -c 0 -i 7 -a 0 -x {1.0 3.0 0 ------- null}
h -t 0.178 -s 2 -d 3 -p cbr -e 1000 -c 0 -i 7 -a 0 -x {1.0 3.0 -1 ------- null}
r -t 0.178 -s 0 -d 2 -p cbr -e 1000 -c 2 -i 10 -a 2 -x {0.0 3.0 8 ------- null}
+ -t 0.178 -s 2 -d 3 -p cbr -e 1000 -c 2 -i 10 -a 2 -x {0.0 3.0 8 ------- null}
+ -t 0.18 -s 0 -d 2 -p cbr -e 1000 -c 2 -i 14 -a 2 -x {0.0 3.0 10 ------- null}
- -t 0.18 -s 0 -d 2 -p cbr -e 1000 -c 2 -i 14 -a 2 -x {0.0 3.0 10 ------- null}
h -t 0.18 -s 0 -d 2 -p cbr -e 1000 -c 2 -i 14 -a 2 -x {0.0 3.0 -1 ------- null}
- -t 0.182 -s 2 -d 3 -p cbr -e 1000 -c 2 -i 10 -a 2 -x {0.0 3.0 8 ------- null}
h -t 0.182 -s 2 -d 3 -p cbr -e 1000 -c 2 -i 10 -a 2 -x {0.0 3.0 -1 ------- null}
+ -t 0.182 -s 1 -d 2 -p cbr -e 1000 -c 0 -i 15 -a 0 -x {1.0 3.0 4 ------- null}
- -t 0.182 -s 1 -d 2 -p cbr -e 1000 -c 0 -i 15 -a 0 -x {1.0 3.0 4 ------- null}
h -t 0.182 -s 1 -d 2 -p cbr -e 1000 -c 0 -i 15 -a 0 -x {1.0 3.0 -1 ------- null}
r -t 0.184 -s 2 -d 3 -p cbr -e 1000 -c 2 -i 8 -a 2 -x {0.0 3.0 7 ------- null}
r -t 0.186 -s 1 -d 2 -p cbr -e 1000 -c 0 -i 9 -a 0 -x {1.0 3.0 1 ------- null}
+ -t 0.186 -s 2 -d 3 -p cbr -e 1000 -c 0 -i 9 -a 0 -x {1.0 3.0 1 ------- null}
- -t 0.186 -s 2 -d 3 -p cbr -e 1000 -c 0 -i 9 -a 0 -x {1.0 3.0 1 ------- null}
h -t 0.186 -s 2 -d 3 -p cbr -e 1000 -c 0 -i 9 -a 0 -x {1.0 3.0 -1 ------- null}
r -t 0.186 -s 0 -d 2 -p cbr -e 1000 -c 2 -i 12 -a 2 -x {0.0 3.0 9 ------- null}
+ -t 0.186 -s 2 -d 3 -p cbr -e 1000 -c 2 -i 12 -a 2 -x {0.0 3.0 9 ------- null}
+ -t 0.188 -s 0 -d 2 -p cbr -e 1000 -c 2 -i 16 -a 2 -x {0.0 3.0 11 ------- null}
- -t 0.188 -s 0 -d 2 -p cbr -e 1000 -c 2 -i 16 -a 2 -x {0.0 3.0 11 ------- null}
h -t 0.188 -s 0 -d 2 -p cbr -e 1000 -c 2 -i 16 -a 2 -x {0.0 3.0 -1 ------- null}
- -t 0.19 -s 2 -d 3 -p cbr -e 1000 -c 2 -i 12 -a 2 -x {0.0 3.0 9 ------- null}
h -t 0.19 -s 2 -d 3 -p cbr -e 1000 -c 2 -i 12 -a 2 -x {0.0 3.0 -1 ------- null}
+ -t 0.19 -s 1 -d 2 -p cbr -e 1000 -c 0 -i 17 -a 0 -x {1.0 3.0 5 ------- null}
- -t 0.19 -s 1 -d 2 -p cbr -e 1000 -c 0 -i 17 -a 0 -x {1.0 3.0 5 ------- null}
h -t 0.19 -s 1 -d 2 -p cbr -e 1000 -c 0 -i 17 -a 0 -x {1.0 3.0 -1 ------- null}
r -t 0.192 -s 2 -d 3 -p cbr -e 1000 -c 0 -i 7 -a 0 -x {1.0 3.0 0 ------- null}
r -t 0.194 -s 1 -d 2 -p cbr -e 1000 -c 0 -i 11 -a 0 -x {1.0 3.0 2 ------- null}
+ -t 0.194 -s 2 -d 3 -p cbr -e 1000 -c 0 -i 11 -a 0 -x {1.0 3.0 2 ------- null}
- -t 0.194 -s 2 -d 3 -p cbr -e 1000 -c 0 -i 11 -a 0 -x {1.0 3.0 2 ------- null}
h -t 0.194 -s 2 -d 3 -p cbr -e 1000 -c 0 -i 11 -a 0 -x {1.0 3.0 -1 ------- null}
r -t 0.194 -s 0 -d 2 -p cbr -e 1000 -c 2 -i 14 -a 2 -x {0.0 3.0 10 ------- null}
+ -t 0.194 -s 2 -d 3 -p cbr -e 1000 -c 2 -i 14 -a 2 -x {0.0 3.0 10 ------- null}
r -t 0.196 -s 2 -d 3 -p cbr -e 1000 -c 2 -i 10 -a 2 -x {0.0 3.0 8 ------- null}
+ -t 0.196 -s 0 -d 2 -p cbr -e 1000 -c 2 -i 18 -a 2 -x {0.0 3.0 12 ------- null}
- -t 0.196 -s 0 -d 2 -p cbr -e 1000 -c 2 -i 18 -a 2 -x {0.0 3.0 12 ------- null}
h -t 0.196 -s 0 -d 2 -p cbr -e 1000 -c 2 -i 18 -a 2 -x {0.0 3.0 -1 ------- null}
- -t 0.198 -s 2 -d 3 -p cbr -e 1000 -c 2 -i 14 -a 2 -x {0.0 3.0 10 ------- null}
h -t 0.198 -s 2 -d 3 -p cbr -e 1000 -c 2 -i 14 -a 2 -x {0.0 3.0 -1 ------- null}
+ -t 0.198 -s 1 -d 2 -p cbr -e 1000 -c 0 -i 19 -a 0 -x {1.0 3.0 6 ------- null}
- -t 0.198 -s 1 -d 2 -p cbr -e 1000 -c 0 -i 19 -a 0 -x {1.0 3.0 6 ------- null}
h -t 0.198 -s 1 -d 2 -p cbr -e 1000 -c 0 -i 19 -a 0 -x {1.0 3.0 -1 ------- null}
r -t 0.2 -s 2 -d 3 -p cbr -e 1000 -c 0 -i 9 -a 0 -x {1.0 3.0 1 ------- null}
r -t 0.202 -s 1 -d 2 -p cbr -e 1000 -c 0 -i 13 -a 0 -x {1.0 3.0 3 ------- null}
+ -t 0.202 -s 2 -d 3 -p cbr -e 1000 -c 0 -i 13 -a 0 -x {1.0 3.0 3 ------- null}
- -t 0.202 -s 2 -d 3 -p cbr -e 1000 -c 0 -i 13 -a 0 -x {1.0 3.0 3 ------- null}
h -t 0.202 -s 2 -d 3 -p cbr -e 1000 -c 0 -i 13 -a 0 -x {1.0 3.0 -1 ------- null}
r -t 0.202 -s 0 -d 2 -p cbr -e 1000 -c 2 -i 16 -a 2 -x {0.0 3.0 11 ------- null}
+ -t 0.202 -s 2 -d 3 -p cbr -e 1000 -c 2 -i 16 -a 2 -x {0.0 3.0 11 ------- null}
r -t 0.204 -s 2 -d 3 -p cbr -e 1000 -c 2 -i 12 -a 2 -x {0.0 3.0 9 ------- null}
+ -t 0.204 -s 0 -d 2 -p cbr -e 1000 -c 2 -i 20 -a 2 -x {0.0 3.0 13 ------- null}
- -t 0.204 -s 0 -d 2 -p cbr -e 1000 -c 2 -i 20 -a 2 -x {0.0 3.0 13 ------- null}
h -t 0.204 -s 0 -d 2 -p cbr -e 1000 -c 2 -i 20 -a 2 -x {0.0 3.0 -1 ------- null}
- -t 0.206 -s 2 -d 3 -p cbr -e 1000 -c 2 -i 16 -a 2 -x {0.0 3.0 11 ------- null}
h -t 0.206 -s 2 -d 3 -p cbr -e 1000 -c 2 -i 16 -a 2 -x {0.0 3.0 -1 ------- null}
+ -t 0.206 -s 1 -d 2 -p cbr -e 1000 -c 0 -i 21 -a 0 -x {1.0 3.0 7 ------- null}
- -t 0.206 -s 1 -d 2 -p cbr -e 1000 -c 0 -i 21 -a 0 -x {1.0 3.0 7 ------- null}
h -t 0.206 -s 1 -d 2 -p cbr -e 1000 -c 0 -i 21 -a 0 -x {1.0 3.0 -1 ------- null}
r -t 0.208 -s 2 -d 3 -p cbr -e 1000 -c 0 -i 11 -a 0 -x {1.0 3.0 2 ------- null}
r -t 0.21 -s 1 -d 2 -p cbr -e 1000 -c 0 -i 15 -a 0 -x {1.0 3.0 4 ------- null}
+ -t 0.21 -s 2 -d 3 -p cbr -e 1000 -c 0 -i 15 -a 0 -x {1.0 3.0 4 ------- null}
- -t 0.21 -s 2 -d 3 -p cbr -e 1000 -c 0 -i 15 -a 0 -x {1.0 3.0 4 ------- null}
h -t 0.21 -s 2 -d 3 -p cbr -e 1000 -c 0 -i 15 -a 0 -x {1.0 3.0 -1 ------- null}
r -t 0.21 -s 0 -d 2 -p cbr -e 1000 -c 2 -i 18 -a 2 -x {0.0 3.0 12 ------- null}
+ -t 0.21 -s 2 -d 3 -p cbr -e 1000 -c 2 -i 18 -a 2 -x {0.0 3.0 12 ------- null}
r -t 0.212 -s 2 -d 3 -p cbr -e 1000 -c 2 -i 14 -a 2 -x {0.0 3.0 10 ------- null}
+ -t 0.212 -s 0 -d 2 -p cbr -e 1000 -c 2 -i 22 -a 2 -x {0.0 3.0 14 ------- null}
- -t 0.212 -s 0 -d 2 -p cbr -e 1000 -c 2 -i 22 -a 2 -x {0.0 3.0 14 ------- null}
h -t 0.212 -s 0 -d 2 -p cbr -e 1000 -c 2 -i 22 -a 2 -x {0.0 3.0 -1 ------- null}
- -t 0.214 -s 2 -d 3 -p cbr -e 1000 -c 2 -i 18 -a 2 -x {0.0 3.0 12 ------- null}
h -t 0.214 -s 2 -d 3 -p cbr -e 1000 -c 2 -i 18 -a 2 -x {0.0 3.0 -1 ------- null}
+ -t 0.214 -s 1 -d 2 -p cbr -e 1000 -c 0 -i 23 -a 0 -x {1.0 3.0 8 ------- null}
- -t 0.214 -s 1 -d 2 -p cbr -e 1000 -c 0 -i 23 -a 0 -x {1.0 3.0 8 ------- null}
h -t 0.214 -s 1 -d 2 -p cbr -e 1000 -c 0 -i 23 -a 0 -x {1.0 3.0 -1 ------- null}
r -t 0.216 -s 2 -d 3 -p cbr -e 1000 -c 0 -i 13 -a 0 -x {1.0 3.0 3 ------- null}
r -t 0.218 -s 1 -d 2 -p cbr -e 1000 -c 0 -i 17 -a 0 -x {1.0 3.0 5 ------- null}
+ -t 0.218 -s 2 -d 3 -p cbr -e 1000 -c 0 -i 17 -a 0 -x {1.0 3.0 5 ------- null}
- -t 0.218 -s 2 -d 3 -p cbr -e 1000 -c 0 -i 17 -a 0 -x {1.0 3.0 5 ------- null}
h -t 0.218 -s 2 -d 3 -p cbr -e 1000 -c 0 -i 17 -a 0 -x {1.0 3.0 -1 ------- null}
r -t 0.218 -s 0 -d 2 -p cbr -e 1000 -c 2 -i 20 -a 2 -x {0.0 3.0 13 ------- null}
+ -t 0.218 -s 2 -d 3 -p cbr -e 1000 -c 2 -i 20 -a 2 -x {0.0 3.0 13 ------- null}
r -t 0.22 -s 2 -d 3 -p cbr -e 1000 -c 2 -i 16 -a 2 -x {0.0 3.0 11 ------- null}
+ -t 0.22 -s 0 -d 2 -p cbr -e 1000 -c 2 -i 24 -a 2 -x {0.0 3.0 15 ------- null}
- -t 0.22 -s 0 -d 2 -p cbr -e 1000 -c 2 -i 24 -a 2 -x {0.0 3.0 15 ------- null}
h -t 0.22 -s 0 -d 2 -p cbr -e 1000 -c 2 -i 24 -a 2 -x {0.0 3.0 -1 ------- null}
- -t 0.222 -s 2 -d 3 -p cbr -e 1000 -c 2 -i 20 -a 2 -x {0.0 3.0 13 ------- null}
h -t 0.222 -s 2 -d 3 -p cbr -e 1000 -c 2 -i 20 -a 2 -x {0.0 3.0 -1 ------- null}
+ -t 0.222 -s 1 -d 2 -p cbr -e 1000 -c 0 -i 25 -a 0 -x {1.0 3.0 9 ------- null}
- -t 0.222 -s 1 -d 2 -p cbr -e 1000 -c 0 -i 25 -a 0 -x {1.0 3.0 9 ------- null}
h -t 0.222 -s 1 -d 2 -p cbr -e 1000 -c 0 -i 25 -a 0 -x {1.0 3.0 -1 ------- null}
r -t 0.224 -s 2 -d 3 -p cbr -e 1000 -c 0 -i 15 -a 0 -x {1.0 3.0 4 ------- null}
r -t 0.226 -s 1 -d 2 -p cbr -e 1000 -c 0 -i 19 -a 0 -x {1.0 3.0 6 ------- null}
+ -t 0.226 -s 2 -d 3 -p cbr -e 1000 -c 0 -i 19 -a 0 -x {1.0 3.0 6 ------- null}
- -t 0.226 -s 2 -d 3 -p cbr -e 1000 -c 0 -i 19 -a 0 -x {1.0 3.0 6 ------- null}
h -t 0.226 -s 2 -d 3 -p cbr -e 1000 -c 0 -i 19 -a 0 -x {1.0 3.0 -1 ------- null}
r -t 0.226 -s 0 -d 2 -p cbr -e 1000 -c 2 -i 22 -a 2 -x {0.0 3.0 14 ------- null}
+ -t 0.226 -s 2 -d 3 -p cbr -e 1000 -c 2 -i 22 -a 2 -x {0.0 3.0 14 ------- null}
r -t 0.228 -s 2 -d 3 -p cbr -e 1000 -c 2 -i 18 -a 2 -x {0.0 3.0 12 ------- null}
+ -t 0.228 -s 0 -d 2 -p cbr -e 1000 -c 2 -i 26 -a 2 -x {0.0 3.0 16 ------- null}
- -t 0.228 -s 0 -d 2 -p cbr -e 1000 -c 2 -i 26 -a 2 -x {0.0 3.0 16 ------- null}
h -t 0.228 -s 0 -d 2 -p cbr -e 1000 -c 2 -i 26 -a 2 -x {0.0 3.0 -1 ------- null}
- -t 0.23 -s 2 -d 3 -p cbr -e 1000 -c 2 -i 22 -a 2 -x {0.0 3.0 14 ------- null}
h -t 0.23 -s 2 -d 3 -p cbr -e 1000 -c 2 -i 22 -a 2 -x {0.0 3.0 -1 ------- null}
+ -t 0.23 -s 1 -d 2 -p cbr -e 1000 -c 0 -i 27 -a 0 -x {1.0 3.0 10 ------- null}
- -t 0.23 -s 1 -d 2 -p cbr -e 1000 -c 0 -i 27 -a 0 -x {1.0 3.0 10 ------- null}
h -t 0.23 -s 1 -d 2 -p cbr -e 1000 -c 0 -i 27 -a 0 -x {1.0 3.0 -1 ------- null}
r -t 0.232 -s 2 -d 3 -p cbr -e 1000 -c 0 -i 17 -a 0 -x {1.0 3.0 5 ------- null}
r -t 0.234 -s 1 -d 2 -p cbr -e 1000 -c 0 -i 21 -a 0 -x {1.0 3.0 7 ------- null}
+ -t 0.234 -s 2 -d 3 -p cbr -e 1000 -c 0 -i 21 -a 0 -x {1.0 3.0 7 ------- null}
- -t 0.234 -s 2 -d 3 -p cbr -e 1000 -c 0 -i 21 -a 0 -x {1.0 3.0 7 ------- null}
h -t 0.234 -s 2 -d 3 -p cbr -e 1000 -c 0 -i 21 -a 0 -x {1.0 3.0 -1 ------- null}
r -t 0.234 -s 0 -d 2 -p cbr -e 1000 -c 2 -i 24 -a 2 -x {0.0 3.0 15 ------- null}
+ -t 0.234 -s 2 -d 3 -p cbr -e 1000 -c 2 -i 24 -a 2 -x {0.0 3.0 15 ------- null}
r -t 0.236 -s 2 -d 3 -p cbr -e 1000 -c 2 -i 20 -a 2 -x {0.0 3.0 13 ------- null}
+ -t 0.236 -s 0 -d 2 -p cbr -e 1000 -c 2 -i 28 -a 2 -x {0.0 3.0 17 ------- null}
- -t 0.236 -s 0 -d 2 -p cbr -e 1000 -c 2 -i 28 -a 2 -x {0.0 3.0 17 ------- null}
h -t 0.236 -s 0 -d 2 -p cbr -e 1000 -c 2 -i 28 -a 2 -x {0.0 3.0 -1 ------- null}
- -t 0.238 -s 2 -d 3 -p cbr -e 1000 -c 2 -i 24 -a 2 -x {0.0 3.0 15 ------- null}
h -t 0.238 -s 2 -d 3 -p cbr -e 1000 -c 2 -i 24 -a 2 -x {0.0 3.0 -1 ------- null}
+ -t 0.238 -s 1 -d 2 -p cbr -e 1000 -c 0 -i 29 -a 0 -x {1.0 3.0 11 ------- null}
- -t 0.238 -s 1 -d 2 -p cbr -e 1000 -c 0 -i 29 -a 0 -x {1.0 3.0 11 ------- null}
h -t 0.238 -s 1 -d 2 -p cbr -e 1000 -c 0 -i 29 -a 0 -x {1.0 3.0 -1 ------- null}
r -t 0.24 -s 2 -d 3 -p cbr -e 1000 -c 0 -i 19 -a 0 -x {1.0 3.0 6 ------- null}
r -t 0.242 -s 1 -d 2 -p cbr -e 1000 -c 0 -i 23 -a 0 -x {1.0 3.0 8 ------- null}
+ -t 0.242 -s 2 -d 3 -p cbr -e 1000 -c 0 -i 23 -a 0 -x {1.0 3.0 8 ------- null}
- -t 0.242 -s 2 -d 3 -p cbr -e 1000 -c 0 -i 23 -a 0 -x {1.0 3.0 8 ------- null}
h -t 0.242 -s 2 -d 3 -p cbr -e 1000 -c 0 -i 23 -a 0 -x {1.0 3.0 -1 ------- null}
r -t 0.242 -s 0 -d 2 -p cbr -e 1000 -c 2 -i 26 -a 2 -x {0.0 3.0 16 ------- null}
+ -t 0.242 -s 2 -d 3 -p cbr -e 1000 -c 2 -i 26 -a 2 -x {0.0 3.0 16 ------- null}
r -t 0.244 -s 2 -d 3 -p cbr -e 1000 -c 2 -i 22 -a 2 -x {0.0 3.0 14 ------- null}
+ -t 0.244 -s 0 -d 2 -p cbr -e 1000 -c 2 -i 30 -a 2 -x {0.0 3.0 18 ------- null}
- -t 0.244 -s 0 -d 2 -p cbr -e 1000 -c 2 -i 30 -a 2 -x {0.0 3.0 18 ------- null}
h -t 0.244 -s 0 -d 2 -p cbr -e 1000 -c 2 -i 30 -a 2 -x {0.0 3.0 -1 ------- null}
- -t 0.246 -s 2 -d 3 -p cbr -e 1000 -c 2 -i 26 -a 2 -x {0.0 3.0 16 ------- null}
h -t 0.246 -s 2 -d 3 -p cbr -e 1000 -c 2 -i 26 -a 2 -x {0.0 3.0 -1 ------- null}
+ -t 0.246 -s 1 -d 2 -p cbr -e 1000 -c 0 -i 31 -a 0 -x {1.0 3.0 12 ------- null}
- -t 0.246 -s 1 -d 2 -p cbr -e 1000 -c 0 -i 31 -a 0 -x {1.0 3.0 12 ------- null}
h -t 0.246 -s 1 -d 2 -p cbr -e 1000 -c 0 -i 31 -a 0 -x {1.0 3.0 -1 ------- null}
r -t 0.248 -s 2 -d 3 -p cbr -e 1000 -c 0 -i 21 -a 0 -x {1.0 3.0 7 ------- null}
r -t 0.25 -s 1 -d 2 -p cbr -e 1000 -c 0 -i 25 -a 0 -x {1.0 3.0 9 ------- null}
+ -t 0.25 -s 2 -d 3 -p cbr -e 1000 -c 0 -i 25 -a 0 -x {1.0 3.0 9 ------- null}
- -t 0.25 -s 2 -d 3 -p cbr -e 1000 -c 0 -i 25 -a 0 -x {1.0 3.0 9 ------- null}
h -t 0.25 -s 2 -d 3 -p cbr -e 1000 -c 0 -i 25 -a 0 -x {1.0 3.0 -1 ------- null}
r -t 0.25 -s 0 -d 2 -p cbr -e 1000 -c 2 -i 28 -a 2 -x {0.0 3.0 17 ------- null}
+ -t 0.25 -s 2 -d 3 -p cbr -e 1000 -c 2 -i 28 -a 2 -x {0.0 3.0 17 ------- null}
r -t 0.252 -s 2 -d 3 -p cbr -e 1000 -c 2 -i 24 -a 2 -x {0.0 3.0 15 ------- null}
+ -t 0.252 -s 0 -d 2 -p cbr -e 1000 -c 2 -i 32 -a 2 -x {0.0 3.0 19 ------- null}
- -t 0.252 -s 0 -d 2 -p cbr -e 1000 -c 2 -i 32 -a 2 -x {0.0 3.0 19 ------- null}
h -t 0.252 -s 0 -d 2 -p cbr -e 1000 -c 2 -i 32 -a 2 -x {0.0 3.0 -1 ------- null}
+ -t 0.254 -s 1 -d 2 -p cbr -e 1000 -c 0 -i 33 -a 0 -x {1.0 3.0 13 ------- null}
- -t 0.254 -s 1 -d 2 -p cbr -e 1000 -c 0 -i 33 -a 0 -x {1.0 3.0 13 ------- null}
h -t 0.254 -s 1 -d 2 -p cbr -e 1000 -c 0 -i 33 -a 0 -x {1.0 3.0 -1 ------- null}
- -t 0.254 -s 2 -d 3 -p cbr -e 1000 -c 2 -i 28 -a 2 -x {0.0 3.0 17 ------- null}
h -t 0.254 -s 2 -d 3 -p cbr -e 1000 -c 2 -i 28 -a 2 -x {0.0 3.0 -1 ------- null}
r -t 0.256 -s 2 -d 3 -p cbr -e 1000 -c 0 -i 23 -a 0 -x {1.0 3.0 8 ------- null}
r -t 0.258 -s 1 -d 2 -p cbr -e 1000 -c 0 -i 27 -a 0 -x {1.0 3.0 10 ------- null}
+ -t 0.258 -s 2 -d 3 -p cbr -e 1000 -c 0 -i 27 -a 0 -x {1.0 3.0 10 ------- null}
- -t 0.258 -s 2 -d 3 -p cbr -e 1000 -c 0 -i 27 -a 0 -x {1.0 3.0 10 ------- null}
h -t 0.258 -s 2 -d 3 -p cbr -e 1000 -c 0 -i 27 -a 0 -x {1.0 3.0 -1 ------- null}
r -t 0.258 -s 0 -d 2 -p cbr -e 1000 -c 2 -i 30 -a 2 -x {0.0 3.0 18 ------- null}
+ -t 0.258 -s 2 -d 3 -p cbr -e 1000 -c 2 -i 30 -a 2 -x {0.0 3.0 18 ------- null}
r -t 0.26 -s 2 -d 3 -p cbr -e 1000 -c 2 -i 26 -a 2 -x {0.0 3.0 16 ------- null}
+ -t 0.26 -s 0 -d 2 -p cbr -e 1000 -c 2 -i 34 -a 2 -x {0.0 3.0 20 ------- null}
- -t 0.26 -s 0 -d 2 -p cbr -e 1000 -c 2 -i 34 -a 2 -x {0.0 3.0 20 ------- null}
h -t 0.26 -s 0 -d 2 -p cbr -e 1000 -c 2 -i 34 -a 2 -x {0.0 3.0 -1 ------- null}
+ -t 0.262 -s 1 -d 2 -p cbr -e 1000 -c 0 -i 35 -a 0 -x {1.0 3.0 14 ------- null}
- -t 0.262 -s 1 -d 2 -p cbr -e 1000 -c 0 -i 35 -a 0 -x {1.0 3.0 14 ------- null}
h -t 0.262 -s 1 -d 2 -p cbr -e 1000 -c 0 -i 35 -a 0 -x {1.0 3.0 -1 ------- null}
- -t 0.262 -s 2 -d 3 -p cbr -e 1000 -c 2 -i 30 -a 2 -x {0.0 3.0 18 ------- null}
h -t 0.262 -s 2 -d 3 -p cbr -e 1000 -c 2 -i 30 -a 2 -x {0.0 3.0 -1 ------- null}
r -t 0.264 -s 2 -d 3 -p cbr -e 1000 -c 0 -i 25 -a 0 -x {1.0 3.0 9 ------- null}
r -t 0.266 -s 1 -d 2 -p cbr -e 1000 -c 0 -i 29 -a 0 -x {1.0 3.0 11 ------- null}
+ -t 0.266 -s 2 -d 3 -p cbr -e 1000 -c 0 -i 29 -a 0 -x {1.0 3.0 11 ------- null}
- -t 0.266 -s 2 -d 3 -p cbr -e 1000 -c 0 -i 29 -a 0 -x {1.0 3.0 11 ------- null}
h -t 0.266 -s 2 -d 3 -p cbr -e 1000 -c 0 -i 29 -a 0 -x {1.0 3.0 -1 ------- null}
r -t 0.266 -s 0 -d 2 -p cbr -e 1000 -c 2 -i 32 -a 2 -x {0.0 3.0 19 ------- null}
+ -t 0.266 -s 2 -d 3 -p cbr -e 1000 -c 2 -i 32 -a 2 -x {0.0 3.0 19 ------- null}
r -t 0.268 -s 2 -d 3 -p cbr -e 1000 -c 2 -i 28 -a 2 -x {0.0 3.0 17 ------- null}
+ -t 0.268 -s 0 -d 2 -p cbr -e 1000 -c 2 -i 36 -a 2 -x {0.0 3.0 21 ------- null}
- -t 0.268 -s 0 -d 2 -p cbr -e 1000 -c 2 -i 36 -a 2 -x {0.0 3.0 21 ------- null}
h -t 0.268 -s 0 -d 2 -p cbr -e 1000 -c 2 -i 36 -a 2 -x {0.0 3.0 -1 ------- null}
+ -t 0.27 -s 1 -d 2 -p cbr -e 1000 -c 0 -i 37 -a 0 -x {1.0 3.0 15 ------- null}
- -t 0.27 -s 1 -d 2 -p cbr -e 1000 -c 0 -i 37 -a 0 -x {1.0 3.0 15 ------- null}
h -t 0.27 -s 1 -d 2 -p cbr -e 1000 -c 0 -i 37 -a 0 -x {1.0 3.0 -1 ------- null}
- -t 0.27 -s 2 -d 3 -p cbr -e 1000 -c 2 -i 32 -a 2 -x {0.0 3.0 19 ------- null}
h -t 0.27 -s 2 -d 3 -p cbr -e 1000 -c 2 -i 32 -a 2 -x {0.0 3.0 -1 ------- null}
r -t 0.272 -s 2 -d 3 -p cbr -e 1000 -c 0 -i 27 -a 0 -x {1.0 3.0 10 ------- null}
r -t 0.274 -s 1 -d 2 -p cbr -e 1000 -c 0 -i 31 -a 0 -x {1.0 3.0 12 ------- null}
+ -t 0.274 -s 2 -d 3 -p cbr -e 1000 -c 0 -i 31 -a 0 -x {1.0 3.0 12 ------- null}
- -t 0.274 -s 2 -d 3 -p cbr -e 1000 -c 0 -i 31 -a 0 -x {1.0 3.0 12 ------- null}
h -t 0.274 -s 2 -d 3 -p cbr -e 1000 -c 0 -i 31 -a 0 -x {1.0 3.0 -1 ------- null}
r -t 0.274 -s 0 -d 2 -p cbr -e 1000 -c 2 -i 34 -a 2 -x {0.0 3.0 20 ------- null}
+ -t 0.274 -s 2 -d 3 -p cbr -e 1000 -c 2 -i 34 -a 2 -x {0.0 3.0 20 ------- null}
r -t 0.276 -s 2 -d 3 -p cbr -e 1000 -c 2 -i 30 -a 2 -x {0.0 3.0 18 ------- null}
+ -t 0.276 -s 0 -d 2 -p cbr -e 1000 -c 2 -i 38 -a 2 -x {0.0 3.0 22 ------- null}
- -t 0.276 -s 0 -d 2 -p cbr -e 1000 -c 2 -i 38 -a 2 -x {0.0 3.0 22 ------- null}
h -t 0.276 -s 0 -d 2 -p cbr -e 1000 -c 2 -i 38 -a 2 -x {0.0 3.0 -1 ------- null}
+ -t 0.278 -s 1 -d 2 -p cbr -e 1000 -c 0 -i 39 -a 0 -x {1.0 3.0 16 ------- null}
- -t 0.278 -s 1 -d 2 -p cbr -e 1000 -c 0 -i 39 -a 0 -x {1.0 3.0 16 ------- null}
h -t 0.278 -s 1 -d 2 -p cbr -e 1000 -c 0 -i 39 -a 0 -x {1.0 3.0 -1 ------- null}
- -t 0.278 -s 2 -d 3 -p cbr -e 1000 -c 2 -i 34 -a 2 -x {0.0 3.0 20 ------- null}
h -t 0.278 -s 2 -d 3 -p cbr -e 1000 -c 2 -i 34 -a 2 -x {0.0 3.0 -1 ------- null}
r -t 0.28 -s 2 -d 3 -p cbr -e 1000 -c 0 -i 29 -a 0 -x {1.0 3.0 11 ------- null}
r -t 0.282 -s 1 -d 2 -p cbr -e 1000 -c 0 -i 33 -a 0 -x {1.0 3.0 13 ------- null}
+ -t 0.282 -s 2 -d 3 -p cbr -e 1000 -c 0 -i 33 -a 0 -x {1.0 3.0 13 ------- null}
- -t 0.282 -s 2 -d 3 -p cbr -e 1000 -c 0 -i 33 -a 0 -x {1.0 3.0 13 ------- null}
h -t 0.282 -s 2 -d 3 -p cbr -e 1000 -c 0 -i 33 -a 0 -x {1.0 3.0 -1 ------- null}
r -t 0.282 -s 0 -d 2 -p cbr -e 1000 -c 2 -i 36 -a 2 -x {0.0 3.0 21 ------- null}
+ -t 0.282 -s 2 -d 3 -p cbr -e 1000 -c 2 -i 36 -a 2 -x {0.0 3.0 21 ------- null}
r -t 0.284 -s 2 -d 3 -p cbr -e 1000 -c 2 -i 32 -a 2 -x {0.0 3.0 19 ------- null}
+ -t 0.284 -s 0 -d 2 -p cbr -e 1000 -c 2 -i 40 -a 2 -x {0.0 3.0 23 ------- null}
- -t 0.284 -s 0 -d 2 -p cbr -e 1000 -c 2 -i 40 -a 2 -x {0.0 3.0 23 ------- null}
h -t 0.284 -s 0 -d 2 -p cbr -e 1000 -c 2 -i 40 -a 2 -x {0.0 3.0 -1 ------- null}
+ -t 0.286 -s 1 -d 2 -p cbr -e 1000 -c 0 -i 41 -a 0 -x {1.0 3.0 17 ------- null}
- -t 0.286 -s 1 -d 2 -p cbr -e 1000 -c 0 -i 41 -a 0 -x {1.0 3.0 17 ------- null}
h -t 0.286 -s 1 -d 2 -p cbr -e 1000 -c 0 -i 41 -a 0 -x {1.0 3.0 -1 ------- null}
- -t 0.286 -s 2 -d 3 -p cbr -e 1000 -c 2 -i 36 -a 2 -x {0.0 3.0 21 ------- null}
h -t 0.286 -s 2 -d 3 -p cbr -e 1000 -c 2 -i 36 -a 2 -x {0.0 3.0 -1 ------- null}
r -t 0.288 -s 2 -d 3 -p cbr -e 1000 -c 0 -i 31 -a 0 -x {1.0 3.0 12 ------- null}
r -t 0.29 -s 1 -d 2 -p cbr -e 1000 -c 0 -i 35 -a 0 -x {1.0 3.0 14 ------- null}
+ -t 0.29 -s 2 -d 3 -p cbr -e 1000 -c 0 -i 35 -a 0 -x {1.0 3.0 14 ------- null}
- -t 0.29 -s 2 -d 3 -p cbr -e 1000 -c 0 -i 35 -a 0 -x {1.0 3.0 14 ------- null}
h -t 0.29 -s 2 -d 3 -p cbr -e 1000 -c 0 -i 35 -a 0 -x {1.0 3.0 -1 ------- null}
r -t 0.29 -s 0 -d 2 -p cbr -e 1000 -c 2 -i 38 -a 2 -x {0.0 3.0 22 ------- null}
+ -t 0.29 -s 2 -d 3 -p cbr -e 1000 -c 2 -i 38 -a 2 -x {0.0 3.0 22 ------- null}
r -t 0.292 -s 2 -d 3 -p cbr -e 1000 -c 2 -i 34 -a 2 -x {0.0 3.0 20 ------- null}
+ -t 0.292 -s 0 -d 2 -p cbr -e 1000 -c 2 -i 42 -a 2 -x {0.0 3.0 24 ------- null}
- -t 0.292 -s 0 -d 2 -p cbr -e 1000 -c 2 -i 42 -a 2 -x {0.0 3.0 24 ------- null}
h -t 0.292 -s 0 -d 2 -p cbr -e 1000 -c 2 -i 42 -a 2 -x {0.0 3.0 -1 ------- null}
+ -t 0.294 -s 1 -d 2 -p cbr -e 1000 -c 0 -i 43 -a 0 -x {1.0 3.0 18 ------- null}
- -t 0.294 -s 1 -d 2 -p cbr -e 1000 -c 0 -i 43 -a 0 -x {1.0 3.0 18 ------- null}
h -t 0.294 -s 1 -d 2 -p cbr -e 1000 -c 0 -i 43 -a 0 -x {1.0 3.0 -1 ------- null}
- -t 0.294 -s 2 -d 3 -p cbr -e 1000 -c 2 -i 38 -a 2 -x {0.0 3.0 22 ------- null}
h -t 0.294 -s 2 -d 3 -p cbr -e 1000 -c 2 -i 38 -a 2 -x {0.0 3.0 -1 ------- null}
r -t 0.296 -s 2 -d 3 -p cbr -e 1000 -c 0 -i 33 -a 0 -x {1.0 3.0 13 ------- null}
r -t 0.298 -s 1 -d 2 -p cbr -e 1000 -c 0 -i 37 -a 0 -x {1.0 3.0 15 ------- null}
+ -t 0.298 -s 2 -d 3 -p cbr -e 1000 -c 0 -i 37 -a 0 -x {1.0 3.0 15 ------- null}
- -t 0.298 -s 2 -d 3 -p cbr -e 1000 -c 0 -i 37 -a 0 -x {1.0 3.0 15 ------- null}
h -t 0.298 -s 2 -d 3 -p cbr -e 1000 -c 0 -i 37 -a 0 -x {1.0 3.0 -1 ------- null}
r -t 0.298 -s 0 -d 2 -p cbr -e 1000 -c 2 -i 40 -a 2 -x {0.0 3.0 23 ------- null}
+ -t 0.298 -s 2 -d 3 -p cbr -e 1000 -c 2 -i 40 -a 2 -x {0.0 3.0 23 ------- null}
r -t 0.3 -s 2 -d 3 -p cbr -e 1000 -c 2 -i 36 -a 2 -x {0.0 3.0 21 ------- null}
+ -t 0.3 -s 0 -d 2 -p cbr -e 1000 -c 2 -i 44 -a 2 -x {0.0 3.0 25 ------- null}
- -t 0.3 -s 0 -d 2 -p cbr -e 1000 -c 2 -i 44 -a 2 -x {0.0 3.0 25 ------- null}
h -t 0.3 -s 0 -d 2 -p cbr -e 1000 -c 2 -i 44 -a 2 -x {0.0 3.0 -1 ------- null}
+ -t 0.302 -s 1 -d 2 -p cbr -e 1000 -c 0 -i 45 -a 0 -x {1.0 3.0 19 ------- null}
- -t 0.302 -s 1 -d 2 -p cbr -e 1000 -c 0 -i 45 -a 0 -x {1.0 3.0 19 ------- null}
h -t 0.302 -s 1 -d 2 -p cbr -e 1000 -c 0 -i 45 -a 0 -x {1.0 3.0 -1 ------- null}
- -t 0.302 -s 2 -d 3 -p cbr -e 1000 -c 2 -i 40 -a 2 -x {0.0 3.0 23 ------- null}
h -t 0.302 -s 2 -d 3 -p cbr -e 1000 -c 2 -i 40 -a 2 -x {0.0 3.0 -1 ------- null}
r -t 0.304 -s 2 -d 3 -p cbr -e 1000 -c 0 -i 35 -a 0 -x {1.0 3.0 14 ------- null}
r -t 0.306 -s 1 -d 2 -p cbr -e 1000 -c 0 -i 39 -a 0 -x {1.0 3.0 16 ------- null}
+ -t 0.306 -s 2 -d 3 -p cbr -e 1000 -c 0 -i 39 -a 0 -x {1.0 3.0 16 ------- null}
- -t 0.306 -s 2 -d 3 -p cbr -e 1000 -c 0 -i 39 -a 0 -x {1.0 3.0 16 ------- null}
h -t 0.306 -s 2 -d 3 -p cbr -e 1000 -c 0 -i 39 -a 0 -x {1.0 3.0 -1 ------- null}
r -t 0.306 -s 0 -d 2 -p cbr -e 1000 -c 2 -i 42 -a 2 -x {0.0 3.0 24 ------- null}
+ -t 0.306 -s 2 -d 3 -p cbr -e 1000 -c 2 -i 42 -a 2 -x {0.0 3.0 24 ------- null}
r -t 0.308 -s 2 -d 3 -p cbr -e 1000 -c 2 -i 38 -a 2 -x {0.0 3.0 22 ------- null}
+ -t 0.308 -s 0 -d 2 -p cbr -e 1000 -c 2 -i 46 -a 2 -x {0.0 3.0 26 ------- null}
- -t 0.308 -s 0 -d 2 -p cbr -e 1000 -c 2 -i 46 -a 2 -x {0.0 3.0 26 ------- null}
h -t 0.308 -s 0 -d 2 -p cbr -e 1000 -c 2 -i 46 -a 2 -x {0.0 3.0 -1 ------- null}
+ -t 0.31 -s 1 -d 2 -p cbr -e 1000 -c 0 -i 47 -a 0 -x {1.0 3.0 20 ------- null}
- -t 0.31 -s 1 -d 2 -p cbr -e 1000 -c 0 -i 47 -a 0 -x {1.0 3.0 20 ------- null}
h -t 0.31 -s 1 -d 2 -p cbr -e 1000 -c 0 -i 47 -a 0 -x {1.0 3.0 -1 ------- null}
- -t 0.31 -s 2 -d 3 -p cbr -e 1000 -c 2 -i 42 -a 2 -x {0.0 3.0 24 ------- null}
h -t 0.31 -s 2 -d 3 -p cbr -e 1000 -c 2 -i 42 -a 2 -x {0.0 3.0 -1 ------- null}
r -t 0.312 -s 2 -d 3 -p cbr -e 1000 -c 0 -i 37 -a 0 -x {1.0 3.0 15 ------- null}
r -t 0.314 -s 1 -d 2 -p cbr -e 1000 -c 0 -i 41 -a 0 -x {1.0 3.0 17 ------- null}
+ -t 0.314 -s 2 -d 3 -p cbr -e 1000 -c 0 -i 41 -a 0 -x {1.0 3.0 17 ------- null}
- -t 0.314 -s 2 -d 3 -p cbr -e 1000 -c 0 -i 41 -a 0 -x {1.0 3.0 17 ------- null}
h -t 0.314 -s 2 -d 3 -p cbr -e 1000 -c 0 -i 41 -a 0 -x {1.0 3.0 -1 ------- null}
r -t 0.314 -s 0 -d 2 -p cbr -e 1000 -c 2 -i 44 -a 2 -x {0.0 3.0 25 ------- null}
+ -t 0.314 -s 2 -d 3 -p cbr -e 1000 -c 2 -i 44 -a 2 -x {0.0 3.0 25 ------- null}
r -t 0.316 -s 2 -d 3 -p cbr -e 1000 -c 2 -i 40 -a 2 -x {0.0 3.0 23 ------- null}
+ -t 0.316 -s 0 -d 2 -p cbr -e 1000 -c 2 -i 48 -a 2 -x {0.0 3.0 27 ------- null}
- -t 0.316 -s 0 -d 2 -p cbr -e 1000 -c 2 -i 48 -a 2 -x {0.0 3.0 27 ------- null}
h -t 0.316 -s 0 -d 2 -p cbr -e 1000 -c 2 -i 48 -a 2 -x {0.0 3.0 -1 ------- null}
+ -t 0.318 -s 1 -d 2 -p cbr -e 1000 -c 0 -i 49 -a 0 -x {1.0 3.0 21 ------- null}
- -t 0.318 -s 1 -d 2 -p cbr -e 1000 -c 0 -i 49 -a 0 -x {1.0 3.0 21 ------- null}
h -t 0.318 -s 1 -d 2 -p cbr -e 1000 -c 0 -i 49 -a 0 -x {1.0 3.0 -1 ------- null}
- -t 0.318 -s 2 -d 3 -p cbr -e 1000 -c 2 -i 44 -a 2 -x {0.0 3.0 25 ------- null}
h -t 0.318 -s 2 -d 3 -p cbr -e 1000 -c 2 -i 44 -a 2 -x {0.0 3.0 -1 ------- null}
r -t 0.32 -s 2 -d 3 -p cbr -e 1000 -c 0 -i 39 -a 0 -x {1.0 3.0 16 ------- null}