V -t * -v 1.0a5 -a 0
A -t * -n 1 -p 0 -o 0x7fffffff -c 30 -a 1
A -t * -h 1 -m 1073741823 -s 0
c -t * -i 1 -n Green
c -t * -i 2 -n Blue
n -t * -a 4 -s 4 -S UP -v circle -c black -i black
n -t * -a 0 -s 0 -S UP -v circle -c black -i black
n -t * -a 1 -s 1 -S UP -v circle -c black -i black
n -t * -a 2 -s 2 -S UP -v circle -c black -i black
n -t * -a 3 -s 3 -S UP -v circle -c black -i black
l -t * -s 0 -d 3 -S UP -r 2000000 -D 0.10000000000000001 -c black -o right-down
l -t * -s 1 -d 3 -S UP -r 3000000 -D 0.10000000000000001 -c black -o right-up
l -t * -s 2 -d 3 -S UP -r 1000000 -D 0.10000000000000001 -c black -o right
l -t * -s 3 -d 4 -S UP -r 2000000 -D 0.080000000000000002 -c black -o right
q -t * -s 4 -d 3 -a 0.5
q -t * -s 3 -d 4 -a 0.5
+ -t 0.01 -s 0 -d 3 -p cbr -e 1000 -c 2 -i 0 -a 2 -x {0.0 4.1 0 ------- null}
- -t 0.01 -s 0 -d 3 -p cbr -e 1000 -c 2 -i 0 -a 2 -x {0.0 4.1 0 ------- null}
h -t 0.01 -s 0 -d 3 -p cbr -e 1000 -c 2 -i 0 -a 2 -x {0.0 4.1 -1 ------- null}
+ -t 0.015 -s 1 -d 3 -p cbr -e 1000 -c 0 -i 1 -a 0 -x {1.0 4.1 0 ------- null}
- -t 0.015 -s 1 -d 3 -p cbr -e 1000 -c 0 -i 1 -a 0 -x {1.0 4.1 0 ------- null}
h -t 0.015 -s 1 -d 3 -p cbr -e 1000 -c 0 -i 1 -a 0 -x {1.0 4.1 -1 ------- null}
+ -t 0.018 -s 0 -d 3 -p cbr -e 1000 -c 2 -i 2 -a 2 -x {0.0 4.1 1 ------- null}
- -t 0.018 -s 0 -d 3 -p cbr -e 1000 -c 2 -i 2 -a 2 -x {0.0 4.1 1 ------- null}
h -t 0.018 -s 0 -d 3 -p cbr -e 1000 -c 2 -i 2 -a 2 -x {0.0 4.1 -1 ------- null}
+ -t 0.023 -s 1 -d 3 -p cbr -e 1000 -c 0 -i 3 -a 0 -x {1.0 4.1 1 ------- null}
- -t 0.023 -s 1 -d 3 -p cbr -e 1000 -c 0 -i 3 -a 0 -x {1.0 4.1 1 ------- null}
h -t 0.023 -s 1 -d 3 -p cbr -e 1000 -c 0 -i 3 -a 0 -x {1.0 4.1 -1 ------- null}
+ -t 0.026 -s 0 -d 3 -p cbr -e 1000 -c 2 -i 4 -a 2 -x {0.0 4.1 2 ------- null}
- -t 0.026 -s 0 -d 3 -p cbr -e 1000 -c 2 -i 4 -a 2 -x {0.0 4.1 2 ------- null}
h -t 0.026 -s 0 -d 3 -p cbr -e 1000 -c 2 -i 4 -a 2 -x {0.0 4.1 -1 ------- null}
+ -t 0.031 -s 1 -d 3 -p cbr -e 1000 -c 0 -i 5 -a 0 -x {1.0 4.1 2 ------- null}
- -t 0.031 -s 1 -d 3 -p cbr -e 1000 -c 0 -i 5 -a 0 -x {1.0 4.1 2 ------- null}
h -t 0.031 -s 1 -d 3 -p cbr -e 1000 -c 0 -i 5 -a 0 -x {1.0 4.1 -1 ------- null}
+ -t 0.034 -s 0 -d 3 -p cbr -e 1000 -c 2 -i 6 -a 2 -x {0.0 4.1 3 ------- null}
- -t 0.034 -s 0 -d 3 -p cbr -e 1000 -c 2 -i 6 -a 2 -x {0.0 4.1 3 ------- null}
h -t 0.034 -s 0 -d 3 -p cbr -e 1000 -c 2 -i 6 -a 2 -x {0.0 4.1 -1 ------- null}
+ -t 0.039 -s 1 -d 3 -p cbr -e 1000 -c 0 -i 7 -a 0 -x {1.0 4.1 3 ------- null}
- -t 0.039 -s 1 -d 3 -p cbr -e 1000 -c 0 -i 7 -a 0 -x {1.0 4.1 3 ------- null}
h -t 0.039 -s 1 -d 3 -p cbr -e 1000 -c 0 -i 7 -a 0 -x {1.0 4.1 -1 ------- null}
+ -t 0.042 -s 0 -d 3 -p cbr -e 1000 -c 2 -i 8 -a 2 -x {0.0 4.1 4 ------- null}
- -t 0.042 -s 0 -d 3 -p cbr -e 1000 -c 2 -i 8 -a 2 -x {0.0 4.1 4 ------- null}
h -t 0.042 -s 0 -d 3 -p cbr -e 1000 -c 2 -i 8 -a 2 -x {0.0 4.1 -1 ------- null}
+ -t 0.047 -s 1 -d 3 -p cbr -e 1000 -c 0 -i 9 -a 0 -x {1.0 4.1 4 ------- null}
- -t 0.047 -s 1 -d 3 -p cbr -e 1000 -c 0 -i 9 -a 0 -x {1.0 4.1 4 ------- null}
h -t 0.047 -s 1 -d 3 -p cbr -e 1000 -c 0 -i 9 -a 0 -x {1.0 4.1 -1 ------- null}
+ -t 0.05 -s 0 -d 3 -p cbr -e 1000 -c 2 -i 10 -a 2 -x {0.0 4.1 5 ------- null}
- -t 0.05 -s 0 -d 3 -p cbr -e 1000 -c 2 -i 10 -a 2 -x {0.0 4.1 5 ------- null}
h -t 0.05 -s 0 -d 3 -p cbr -e 1000 -c 2 -i 10 -a 2 -x {0.0 4.1 -1 ------- null}
+ -t 0.055 -s 1 -d 3 -p cbr -e 1000 -c 0 -i 11 -a 0 -x {1.0 4.1 5 ------- null}
- -t 0.055 -s 1 -d 3 -p cbr -e 1000 -c 0 -i 11 -a 0 -x {1.0 4.1 5 ------- null}
h -t 0.055 -s 1 -d 3 -p cbr -e 1000 -c 0 -i 11 -a 0 -x {1.0 4.1 -1 ------- null}
+ -t 0.058 -s 0 -d 3 -p cbr -e 1000 -c 2 -i 12 -a 2 -x {0.0 4.1 6 ------- null}
- -t 0.058 -s 0 -d 3 -p cbr -e 1000 -c 2 -i 12 -a 2 -x {0.0 4.1 6 ------- null}
h -t 0.058 -s 0 -d 3 -p cbr -e 1000 -c 2 -i 12 -a 2 -x {0.0 4.1 -1 ------- null}
+ -t 0.063 -s 1 -d 3 -p cbr -e 1000 -c 0 -i 13 -a 0 -x {1.0 4.1 6 ------- null}
- -t 0.063 -s 1 -d 3 -p cbr -e 1000 -c 0 -i 13 -a 0 -x {1.0 4.1 6 ------- null}
h -t 0.063 -s 1 -d 3 -p cbr -e 1000 -c 0 -i 13 -a 0 -x {1.0 4.1 -1 ------- null}
+ -t 0.066 -s 0 -d 3 -p cbr -e 1000 -c 2 -i 14 -a 2 -x {0.0 4.1 7 ------- null}
- -t 0.066 -s 0 -d 3 -p cbr -e 1000 -c 2 -i 14 -a 2 -x {0.0 4.1 7 ------- null}
h -t 0.066 -s 0 -d 3 -p cbr -e 1000 -c 2 -i 14 -a 2 -x {0.0 4.1 -1 ------- null}
+ -t 0.071 -s 1 -d 3 -p cbr -e 1000 -c 0 -i 15 -a 0 -x {1.0 4.1 7 ------- null}
- -t 0.071 -s 1 -d 3 -p cbr -e 1000 -c 0 -i 15 -a 0 -x {1.0 4.1 7 ------- null}
h -t 0.071 -s 1 -d 3 -p cbr -e 1000 -c 0 -i 15 -a 0 -x {1.0 4.1 -1 ------- null}
+ -t 0.074 -s 0 -d 3 -p cbr -e 1000 -c 2 -i 16 -a 2 -x {0.0 4.1 8 ------- null}
- -t 0.074 -s 0 -d 3 -p cbr -e 1000 -c 2 -i 16 -a 2 -x {0.0 4.1 8 ------- null}
h -t 0.074 -s 0 -d 3 -p cbr -e 1000 -c 2 -i 16 -a 2 -x {0.0 4.1 -1 ------- null}
+ -t 0.079 -s 1 -d 3 -p cbr -e 1000 -c 0 -i 17 -a 0 -x {1.0 4.1 8 ------- null}
- -t 0.079 -s 1 -d 3 -p cbr -e 1000 -c 0 -i 17 -a 0 -x {1.0 4.1 8 ------- null}
h -t 0.079 -s 1 -d 3 -p cbr -e 1000 -c 0 -i 17 -a 0 -x {1.0 4.1 -1 ------- null}
+ -t 0.082 -s 0 -d 3 -p cbr -e 1000 -c 2 -i 18 -a 2 -x {0.0 4.1 9 ------- null}
- -t 0.082 -s 0 -d 3 -p cbr -e 1000 -c 2 -i 18 -a 2 -x {0.0 4.1 9 ------- null}
h -t 0.082 -s 0 -d 3 -p cbr -e 1000 -c 2 -i 18 -a 2 -x {0.0 4.1 -1 ------- null}
+ -t 0.087 -s 1 -d 3 -p cbr -e 1000 -c 0 -i 19 -a 0 -x {1.0 4.1 9 ------- null}
- -t 0.087 -s 1 -d 3 -p cbr -e 1000 -c 0 -i 19 -a 0 -x {1.0 4.1 9 ------- null}
h -t 0.087 -s 1 -d 3 -p cbr -e 1000 -c 0 -i 19 -a 0 -x {1.0 4.1 -1 ------- null}
+ -t 0.09 -s 0 -d 3 -p cbr -e 1000 -c 2 -i 20 -a 2 -x {0.0 4.1 10 ------- null}
- -t 0.09 -s 0 -d 3 -p cbr -e 1000 -c 2 -i 20 -a 2 -x {0.0 4.1 10 ------- null}
h -t 0.09 -s 0 -d 3 -p cbr -e 1000 -c 2 -i 20 -a 2 -x {0.0 4.1 -1 ------- null}
+ -t 0.095 -s 1 -d 3 -p cbr -e 1000 -c 0 -i 21 -a 0 -x {1.0 4.1 10 ------- null}
- -t 0.095 -s 1 -d 3 -p cbr -e 1000 -c 0 -i 21 -a 0 -x {1.0 4.1 10 ------- null}
h -t 0.095 -s 1 -d 3 -p cbr -e 1000 -c 0 -i 21 -a 0 -x {1.0 4.1 -1 ------- null}
+ -t 0.098 -s 0 -d 3 -p cbr -e 1000 -c 2 -i 22 -a 2 -x {0.0 4.1 11 ------- null}
- -t 0.098 -s 0 -d 3 -p cbr -e 1000 -c 2 -i 22 -a 2 -x {0.0 4.1 11 ------- null}
h -t 0.098 -s 0 -d 3 -p cbr -e 1000 -c 2 -i 22 -a 2 -x {0.0 4.1 -1 ------- null}
+ -t 0.1 -s 2 -d 3 -p tcp -e 40 -c 1 -i 23 -a 1 -x {2.0 4.0 0 ------- null}
- -t 0.1 -s 2 -d 3 -p tcp -e 40 -c 1 -i 23 -a 1 -x {2.0 4.0 0 ------- null}
h -t 0.1 -s 2 -d 3 -p tcp -e 40 -c 1 -i 23 -a 1 -x {2.0 4.0 -1 ------- null}
+ -t 0.103 -s 1 -d 3 -p cbr -e 1000 -c 0 -i 24 -a 0 -x {1.0 4.1 11 ------- null}
- -t 0.103 -s 1 -d 3 -p cbr -e 1000 -c 0 -i 24 -a 0 -x {1.0 4.1 11 ------- null}
h -t 0.103 -s 1 -d 3 -p cbr -e 1000 -c 0 -i 24 -a 0 -x {1.0 4.1 -1 ------- null}
+ -t 0.106 -s 0 -d 3 -p cbr -e 1000 -c 2 -i 25 -a 2 -x {0.0 4.1 12 ------- null}
- -t 0.106 -s 0 -d 3 -p cbr -e 1000 -c 2 -i 25 -a 2 -x {0.0 4.1 12 ------- null}
h -t 0.106 -s 0 -d 3 -p cbr -e 1000 -c 2 -i 25 -a 2 -x {0.0 4.1 -1 ------- null}
+ -t 0.111 -s 1 -d 3 -p cbr -e 1000 -c 0 -i 26 -a 0 -x {1.0 4.1 12 ------- null}
- -t 0.111 -s 1 -d 3 -p cbr -e 1000 -c 0 -i 26 -a 0 -x {1.0 4.1 12 ------- null}
h -t 0.111 -s 1 -d 3 -p cbr -e 1000 -c 0 -i 26 -a 0 -x {1.0 4.1 -1 ------- null}
r -t 0.114 -s 0 -d 3 -p cbr -e 1000 -c 2 -i 0 -a 2 -x {0.0 4.1 0 ------- null}
+ -t 0.114 -s 3 -d 4 -p cbr -e 1000 -c 2 -i 0 -a 2 -x {0.0 4.1 0 ------- null}
- -t 0.114 -s 3 -d 4 -p cbr -e 1000 -c 2 -i 0 -a 2 -x {0.0 4.1 0 ------- null}
h -t 0.114 -s 3 -d 4 -p cbr -e 1000 -c 2 -i 0 -a 2 -x {0.0 4.1 -1 ------- null}
+ -t 0.114 -s 0 -d 3 -p cbr -e 1000 -c 2 -i 27 -a 2 -x {0.0 4.1 13 ------- null}
- -t 0.114 -s 0 -d 3 -p cbr -e 1000 -c 2 -i 27 -a 2 -x {0.0 4.1 13 ------- null}
h -t 0.114 -s 0 -d 3 -p cbr -e 1000 -c 2 -i 27 -a 2 -x {0.0 4.1 -1 ------- null}
r -t 0.117666666666667 -s 1 -d 3 -p cbr -e 1000 -c 0 -i 1 -a 0 -x {1.0 4.1 0 ------- null}
+ -t 0.117666666666667 -s 3 -d 4 -p cbr -e 1000 -c 0 -i 1 -a 0 -x {1.0 4.1 0 ------- null}
- -t 0.118 -s 3 -d 4 -p cbr -e 1000 -c 0 -i 1 -a 0 -x {1.0 4.1 0 ------- null}
h -t 0.118 -s 3 -d 4 -p cbr -e 1000 -c 0 -i 1 -a 0 -x {1.0 4.1 -1 ------- null}
+ -t 0.119 -s 1 -d 3 -p cbr -e 1000 -c 0 -i 28 -a 0 -x {1.0 4.1 13 ------- null}
- -t 0.119 -s 1 -d 3 -p cbr -e 1000 -c 0 -i 28 -a 0 -x {1.0 4.1 13 ------- null}
h -t 0.119 -s 1 -d 3 -p cbr -e 1000 -c 0 -i 28 -a 0 -x {1.0 4.1 -1 ------- null}
r -t 0.122 -s 0 -d 3 -p cbr -e 1000 -c 2 -i 2 -a 2 -x {0.0 4.1 1 ------- null}
+ -t 0.122 -s 3 -d 4 -p cbr -e 1000 -c 2 -i 2 -a 2 -x {0.0 4.1 1 ------- null}
- -t 0.122 -s 3 -d 4 -p cbr -e 1000 -c 2 -i 2 -a 2 -x {0.0 4.1 1 ------- null}
h -t 0.122 -s 3 -d 4 -p cbr -e 1000 -c 2 -i 2 -a 2 -x {0.0 4.1 -1 ------- null}
+ -t 0.122 -s 0 -d 3 -p cbr -e 1000 -c 2 -i 29 -a 2 -x {0.0 4.1 14 ------- null}
- -t 0.122 -s 0 -d 3 -p cbr -e 1000 -c 2 -i 29 -a 2 -x {0.0 4.1 14 ------- null}
h -t 0.122 -s 0 -d 3 -p cbr -e 1000 -c 2 -i 29 -a 2 -x {0.0 4.1 -1 ------- null}
r -t 0.125666666666667 -s 1 -d 3 -p cbr -e 1000 -c 0 -i 3 -a 0 -x {1.0 4.1 1 ------- null}
+ -t 0.125666666666667 -s 3 -d 4 -p cbr -e 1000 -c 0 -i 3 -a 0 -x {1.0 4.1 1 ------- null}
- -t 0.126 -s 3 -d 4 -p cbr -e 1000 -c 0 -i 3 -a 0 -x {1.0 4.1 1 ------- null}
h -t 0.126 -s 3 -d 4 -p cbr -e 1000 -c 0 -i 3 -a 0 -x {1.0 4.1 -1 ------- null}
+ -t 0.127 -s 1 -d 3 -p cbr -e 1000 -c 0 -i 30 -a 0 -x {1.0 4.1 14 ------- null}
- -t 0.127 -s 1 -d 3 -p cbr -e 1000 -c 0 -i 30 -a 0 -x {1.0 4.1 14 ------- null}
h -t 0.127 -s 1 -d 3 -p cbr -e 1000 -c 0 -i 30 -a 0 -x {1.0 4.1 -1 ------- null}
r -t 0.13 -s 0 -d 3 -p cbr -e 1000 -c 2 -i 4 -a 2 -x {0.0 4.1 2 ------- null}
+ -t 0.13 -s 3 -d 4 -p cbr -e 1000 -c 2 -i 4 -a 2 -x {0.0 4.1 2 ------- null}
- -t 0.13 -s 3 -d 4 -p cbr -e 1000 -c 2 -i 4 -a 2 -x {0.0 4.1 2 ------- null}
h -t 0.13 -s 3 -d 4 -p cbr -e 1000 -c 2 -i 4 -a 2 -x {0.0 4.1 -1 ------- null}
+ -t 0.13 -s 0 -d 3 -p cbr -e 1000 -c 2 -i 31 -a 2 -x {0.0 4.1 15 ------- null}
- -t 0.13 -s 0 -d 3 -p cbr -e 1000 -c 2 -i 31 -a 2 -x {0.0 4.1 15 ------- null}
h -t 0.13 -s 0 -d 3 -p cbr -e 1000 -c 2 -i 31 -a 2 -x {0.0 4.1 -1 ------- null}
r -t 0.133666666666667 -s 1 -d 3 -p cbr -e 1000 -c 0 -i 5 -a 0 -x {1.0 4.1 2 ------- null}
+ -t 0.133666666666667 -s 3 -d 4 -p cbr -e 1000 -c 0 -i 5 -a 0 -x {1.0 4.1 2 ------- null}
- -t 0.134 -s 3 -d 4 -p cbr -e 1000 -c 0 -i 5 -a 0 -x {1.0 4.1 2 ------- null}
h -t 0.134 -s 3 -d 4 -p cbr -e 1000 -c 0 -i 5 -a 0 -x {1.0 4.1 -1 ------- null}
+ -t 0.135 -s 1 -d 3 -p cbr -e 1000 -c 0 -i 32 -a 0 -x {1.0 4.1 15 ------- null}
- -t 0.135 -s 1 -d 3 -p cbr -e 1000 -c 0 -i 32 -a 0 -x {1.0 4.1 15 ------- null}
h -t 0.135 -s 1 -d 3 -p cbr -e 1000 -c 0 -i 32 -a 0 -x {1.0 4.1 -1 ------- null}
r -t 0.138 -s 0 -d 3 -p cbr -e 1000 -c 2 -i 6 -a 2 -x {0.0 4.1 3 ------- null}
+ -t 0.138 -s 3 -d 4 -p cbr -e 1000 -c 2 -i 6 -a 2 -x {0.0 4.1 3 ------- null}
- -t 0.138 -s 3 -d 4 -p cbr -e 1000 -c 2 -i 6 -a 2 -x {0.0 4.1 3 ------- null}
h -t 0.138 -s 3 -d 4 -p cbr -e 1000 -c 2 -i 6 -a 2 -x {0.0 4.1 -1 ------- null}
+ -t 0.138 -s 0 -d 3 -p cbr -e 1000 -c 2 -i 33 -a 2 -x {0.0 4.1 16 ------- null}
- -t 0.138 -s 0 -d 3 -p cbr -e 1000 -c 2 -i 33 -a 2 -x {0.0 4.1 16 ------- null}
h -t 0.138 -s 0 -d 3 -p cbr -e 1000 -c 2 -i 33 -a 2 -x {0.0 4.1 -1 ------- null}
r -t 0.141666666666667 -s 1 -d 3 -p cbr -e 1000 -c 0 -i 7 -a 0 -x {1.0 4.1 3 ------- null}
+ -t 0.141666666666667 -s 3 -d 4 -p cbr -e 1000 -c 0 -i 7 -a 0 -x {1.0 4.1 3 ------- null}
- -t 0.142 -s 3 -d 4 -p cbr -e 1000 -c 0 -i 7 -a 0 -x {1.0 4.1 3 ------- null}
h -t 0.142 -s 3 -d 4 -p cbr -e 1000 -c 0 -i 7 -a 0 -x {1.0 4.1 -1 ------- null}
+ -t 0.143 -s 1 -d 3 -p cbr -e 1000 -c 0 -i 34 -a 0 -x {1.0 4.1 16 ------- null}
- -t 0.143 -s 1 -d 3 -p cbr -e 1000 -c 0 -i 34 -a 0 -x {1.0 4.1 16 ------- null}
h -t 0.143 -s 1 -d 3 -p cbr -e 1000 -c 0 -i 34 -a 0 -x {1.0 4.1 -1 ------- null}
r -t 0.146 -s 0 -d 3 -p cbr -e 1000 -c 2 -i 8 -a 2 -x {0.0 4.1 4 ------- null}
+ -t 0.146 -s 3 -d 4 -p cbr -e 1000 -c 2 -i 8 -a 2 -x {0.0 4.1 4 ------- null}
- -t 0.146 -s 3 -d 4 -p cbr -e 1000 -c 2 -i 8 -a 2 -x {0.0 4.1 4 ------- null}
h -t 0.146 -s 3 -d 4 -p cbr -e 1000 -c 2 -i 8 -a 2 -x {0.0 4.1 -1 ------- null}
+ -t 0.146 -s 0 -d 3 -p cbr -e 1000 -c 2 -i 35 -a 2 -x {0.0 4.1 17 ------- null}
- -t 0.146 -s 0 -d 3 -p cbr -e 1000 -c 2 -i 35 -a 2 -x {0.0 4.1 17 ------- null}
h -t 0.146 -s 0 -d 3 -p cbr -e 1000 -c 2 -i 35 -a 2 -x {0.0 4.1 -1 ------- null}
r -t 0.149666666666667 -s 1 -d 3 -p cbr -e 1000 -c 0 -i 9 -a 0 -x {1.0 4.1 4 ------- null}
+ -t 0.149666666666667 -s 3 -d 4 -p cbr -e 1000 -c 0 -i 9 -a 0 -x {1.0 4.1 4 ------- null}
- -t 0.15 -s 3 -d 4 -p cbr -e 1000 -c 0 -i 9 -a 0 -x {1.0 4.1 4 ------- null}
h -t 0.15 -s 3 -d 4 -p cbr -e 1000 -c 0 -i 9 -a 0 -x {1.0 4.1 -1 ------- null}
+ -t 0.151 -s 1 -d 3 -p cbr -e 1000 -c 0 -i 36 -a 0 -x {1.0 4.1 17 ------- null}
- -t 0.151 -s 1 -d 3 -p cbr -e 1000 -c 0 -i 36 -a 0 -x {1.0 4.1 17 ------- null}
h -t 0.151 -s 1 -d 3 -p cbr -e 1000 -c 0 -i 36 -a 0 -x {1.0 4.1 -1 ------- null}
r -t 0.154 -s 0 -d 3 -p cbr -e 1000 -c 2 -i 10 -a 2 -x {0.0 4.1 5 ------- null}
+ -t 0.154 -s 3 -d 4 -p cbr -e 1000 -c 2 -i 10 -a 2 -x {0.0 4.1 5 ------- null}
- -t 0.154 -s 3 -d 4 -p cbr -e 1000 -c 2 -i 10 -a 2 -x {0.0 4.1 5 ------- null}
h -t 0.154 -s 3 -d 4 -p cbr -e 1000 -c 2 -i 10 -a 2 -x {0.0 4.1 -1 ------- null}
+ -t 0.154 -s 0 -d 3 -p cbr -e 1000 -c 2 -i 37 -a 2 -x {0.0 4.1 18 ------- null}
- -t 0.154 -s 0 -d 3 -p cbr -e 1000 -c 2 -i 37 -a 2 -x {0.0 4.1 18 ------- null}
h -t 0.154 -s 0 -d 3 -p cbr -e 1000 -c 2 -i 37 -a 2 -x {0.0 4.1 -1 ------- null}
r -t 0.157666666666667 -s 1 -d 3 -p cbr -e 1000 -c 0 -i 11 -a 0 -x {1.0 4.1 5 ------- null}
+ -t 0.157666666666667 -s 3 -d 4 -p cbr -e 1000 -c 0 -i 11 -a 0 -x {1.0 4.1 5 ------- null}
- -t 0.158 -s 3 -d 4 -p cbr -e 1000 -c 0 -i 11 -a 0 -x {1.0 4.1 5 ------- null}
h -t 0.158 -s 3 -d 4 -p cbr -e 1000 -c 0 -i 11 -a 0 -x {1.0 4.1 -1 ------- null}
+ -t 0.159 -s 1 -d 3 -p cbr -e 1000 -c 0 -i 38 -a 0 -x {1.0 4.1 18 ------- null}
- -t 0.159 -s 1 -d 3 -p cbr -e 1000 -c 0 -i 38 -a 0 -x {1.0 4.1 18 ------- null}
h -t 0.159 -s 1 -d 3 -p cbr -e 1000 -c 0 -i 38 -a 0 -x {1.0 4.1 -1 ------- null}
r -t 0.162 -s 0 -d 3 -p cbr -e 1000 -c 2 -i 12 -a 2 -x {0.0 4.1 6 ------- null}
+ -t 0.162 -s 3 -d 4 -p cbr -e 1000 -c 2 -i 12 -a 2 -x {0.0 4.1 6 ------- null}
- -t 0.162 -s 3 -d 4 -p cbr -e 1000 -c 2 -i 12 -a 2 -x {0.0 4.1 6 ------- null}
h -t 0.162 -s 3 -d 4 -p cbr -e 1000 -c 2 -i 12 -a 2 -x {0.0 4.1 -1 ------- null}
+ -t 0.162 -s 0 -d 3 -p cbr -e 1000 -c 2 -i 39 -a 2 -x {0.0 4.1 19 ------- null}
- -t 0.162 -s 0 -d 3 -p cbr -e 1000 -c 2 -i 39 -a 2 -x {0.0 4.1 19 ------- null}
h -t 0.162 -s 0 -d 3 -p cbr -e 1000 -c 2 -i 39 -a 2 -x {0.0 4.1 -1 ------- null}
r -t 0.165666666666667 -s 1 -d 3 -p cbr -e 1000 -c 0 -i 13 -a 0 -x {1.0 4.1 6 ------- null}
+ -t 0.165666666666667 -s 3 -d 4 -p cbr -e 1000 -c 0 -i 13 -a 0 -x {1.0 4.1 6 ------- null}
- -t 0.166 -s 3 -d 4 -p cbr -e 1000 -c 0 -i 13 -a 0 -x {1.0 4.1 6 ------- null}
h -t 0.166 -s 3 -d 4 -p cbr -e 1000 -c 0 -i 13 -a 0 -x {1.0 4.1 -1 ------- null}
+ -t 0.167 -s 1 -d 3 -p cbr -e 1000 -c 0 -i 40 -a 0 -x {1.0 4.1 19 ------- null}
- -t 0.167 -s 1 -d 3 -p cbr -e 1000 -c 0 -i 40 -a 0 -x {1.0 4.1 19 ------- null}
h -t 0.167 -s 1 -d 3 -p cbr -e 1000 -c 0 -i 40 -a 0 -x {1.0 4.1 -1 ------- null}
r -t 0.17 -s 0 -d 3 -p cbr -e 1000 -c 2 -i 14 -a 2 -x {0.0 4.1 7 ------- null}
+ -t 0.17 -s 3 -d 4 -p cbr -e 1000 -c 2 -i 14 -a 2 -x {0.0 4.1 7 ------- null}
- -t 0.17 -s 3 -d 4 -p cbr -e 1000 -c 2 -i 14 -a 2 -x {0.0 4.1 7 ------- null}
h -t 0.17 -s 3 -d 4 -p cbr -e 1000 -c 2 -i 14 -a 2 -x {0.0 4.1 -1 ------- null}
+ -t 0.17 -s 0 -d 3 -p cbr -e 1000 -c 2 -i 41 -a 2 -x {0.0 4.1 20 ------- null}
- -t 0.17 -s 0 -d 3 -p cbr -e 1000 -c 2 -i 41 -a 2 -x {0.0 4.1 20 ------- null}
h -t 0.17 -s 0 -d 3 -p cbr -e 1000 -c 2 -i 41 -a 2 -x {0.0 4.1 -1 ------- null}
r -t 0.173666666666667 -s 1 -d 3 -p cbr -e 1000 -c 0 -i 15 -a 0 -x {1.0 4.1 7 ------- null}
+ -t 0.173666666666667 -s 3 -d 4 -p cbr -e 1000 -c 0 -i 15 -a 0 -x {1.0 4.1 7 ------- null}
- -t 0.174 -s 3 -d 4 -p cbr -e 1000 -c 0 -i 15 -a 0 -x {1.0 4.1 7 ------- null}
h -t 0.174 -s 3 -d 4 -p cbr -e 1000 -c 0 -i 15 -a 0 -x {1.0 4.1 -1 ------- null}
+ -t 0.175 -s 1 -d 3 -p cbr -e 1000 -c 0 -i 42 -a 0 -x {1.0 4.1 20 ------- null}
- -t 0.175 -s 1 -d 3 -p cbr -e 1000 -c 0 -i 42 -a 0 -x {1.0 4.1 20 ------- null}
h -t 0.175 -s 1 -d 3 -p cbr -e 1000 -c 0 -i 42 -a 0 -x {1.0 4.1 -1 ------- null}
r -t 0.178 -s 0 -d 3 -p cbr -e 1000 -c 2 -i 16 -a 2 -x {0.0 4.1 8 ------- null}
+ -t 0.178 -s 3 -d 4 -p cbr -e 1000 -c 2 -i 16 -a 2 -x {0.0 4.1 8 ------- null}
- -t 0.178 -s 3 -d 4 -p cbr -e 1000 -c 2 -i 16 -a 2 -x {0.0 4.1 8 ------- null}
h -t 0.178 -s 3 -d 4 -p cbr -e 1000 -c 2 -i 16 -a 2 -x {0.0 4.1 -1 ------- null}
+ -t 0.178 -s 0 -d 3 -p cbr -e 1000 -c 2 -i 43 -a 2 -x {0.0 4.1 21 ------- null}
- -t 0.178 -s 0 -d 3 -p cbr -e 1000 -c 2 -i 43 -a 2 -x {0.0 4.1 21 ------- null}
h -t 0.178 -s 0 -d 3 -p cbr -e 1000 -c 2 -i 43 -a 2 -x {0.0 4.1 -1 ------- null}
r -t 0.181666666666667 -s 1 -d 3 -p cbr -e 1000 -c 0 -i 17 -a 0 -x {1.0 4.1 8 ------- null}
+ -t 0.181666666666667 -s 3 -d 4 -p cbr -e 1000 -c 0 -i 17 -a 0 -x {1.0 4.1 8 ------- null}
- -t 0.182 -s 3 -d 4 -p cbr -e 1000 -c 0 -i 17 -a 0 -x {1.0 4.1 8 ------- null}
h -t 0.182 -s 3 -d 4 -p cbr -e 1000 -c 0 -i 17 -a 0 -x {1.0 4.1 -1 ------- null}
+ -t 0.183 -s 1 -d 3 -p cbr -e 1000 -c 0 -i 44 -a 0 -x {1.0 4.1 21 ------- null}
- -t 0.183 -s 1 -d 3 -p cbr -e 1000 -c 0 -i 44 -a 0 -x {1.0 4.1 21 ------- null}
h -t 0.183 -s 1 -d 3 -p cbr -e 1000 -c 0 -i 44 -a 0 -x {1.0 4.1 -1 ------- null}
r -t 0.186 -s 0 -d 3 -p cbr -e 1000 -c 2 -i 18 -a 2 -x {0.0 4.1 9 ------- null}
+ -t 0.186 -s 3 -d 4 -p cbr -e 1000 -c 2 -i 18 -a 2 -x {0.0 4.1 9 ------- null}
- -t 0.186 -s 3 -d 4 -p cbr -e 1000 -c 2 -i 18 -a 2 -x {0.0 4.1 9 ------- null}
h -t 0.186 -s 3 -d 4 -p cbr -e 1000 -c 2 -i 18 -a 2 -x {0.0 4.1 -1 ------- null}
+ -t 0.186 -s 0 -d 3 -p cbr -e 1000 -c 2 -i 45 -a 2 -x {0.0 4.1 22 ------- null}
- -t 0.186 -s 0 -d 3 -p cbr -e 1000 -c 2 -i 45 -a 2 -x {0.0 4.1 22 ------- null}
h -t 0.186 -s 0 -d 3 -p cbr -e 1000 -c 2 -i 45 -a 2 -x {0.0 4.1 -1 ------- null}
r -t 0.189666666666667 -s 1 -d 3 -p cbr -e 1000 -c 0 -i 19 -a 0 -x {1.0 4.1 9 ------- null}
+ -t 0.189666666666667 -s 3 -d 4 -p cbr -e 1000 -c 0 -i 19 -a 0 -x {1.0 4.1 9 ------- null}
- -t 0.19 -s 3 -d 4 -p cbr -e 1000 -c 0 -i 19 -a 0 -x {1.0 4.1 9 ------- null}
h -t 0.19 -s 3 -d 4 -p cbr -e 1000 -c 0 -i 19 -a 0 -x {1.0 4.1 -1 ------- null}
+ -t 0.191 -s 1 -d 3 -p cbr -e 1000 -c 0 -i 46 -a 0 -x {1.0 4.1 22 ------- null}
- -t 0.191 -s 1 -d 3 -p cbr -e 1000 -c 0 -i 46 -a 0 -x {1.0 4.1 22 ------- null}
h -t 0.191 -s 1 -d 3 -p cbr -e 1000 -c 0 -i 46 -a 0 -x {1.0 4.1 -1 ------- null}
r -t 0.194 -s 0 -d 3 -p cbr -e 1000 -c 2 -i 20 -a 2 -x {0.0 4.1 10 ------- null}
+ -t 0.194 -s 3 -d 4 -p cbr -e 1000 -c 2 -i 20 -a 2 -x {0.0 4.1 10 ------- null}
- -t 0.194 -s 3 -d 4 -p cbr -e 1000 -c 2 -i 20 -a 2 -x {0.0 4.1 10 ------- null}
h -t 0.194 -s 3 -d 4 -p cbr -e 1000 -c 2 -i 20 -a 2 -x {0.0 4.1 -1 ------- null}
+ -t 0.194 -s 0 -d 3 -p cbr -e 1000 -c 2 -i 47 -a 2 -x {0.0 4.1 23 ------- null}
- -t 0.194 -s 0 -d 3 -p cbr -e 1000 -c 2 -i 47 -a 2 -x {0.0 4.1 23 ------- null}
h -t 0.194 -s 0 -d 3 -p cbr -e 1000 -c 2 -i 47 -a 2 -x {0.0 4.1 -1 ------- null}
r -t 0.197666666666667 -s 1 -d 3 -p cbr -e 1000 -c 0 -i 21 -a 0 -x {1.0 4.1 10 ------- null}
+ -t 0.197666666666667 -s 3 -d 4 -p cbr -e 1000 -c 0 -i 21 -a 0 -x {1.0 4.1 10 ------- null}
r -t 0.198 -s 3 -d 4 -p cbr -e 1000 -c 2 -i 0 -a 2 -x {0.0 4.1 0 ------- null}
- -t 0.198 -s 3 -d 4 -p cbr -e 1000 -c 0 -i 21 -a 0 -x {1.0 4.1 10 ------- null}
h -t 0.198 -s 3 -d 4 -p cbr -e 1000 -c 0 -i 21 -a 0 -x {1.0 4.1 -1 ------- null}
+ -t 0.199 -s 1 -d 3 -p cbr -e 1000 -c 0 -i 48 -a 0 -x {1.0 4.1 23 ------- null}
- -t 0.199 -s 1 -d 3 -p cbr -e 1000 -c 0 -i 48 -a 0 -x {1.0 4.1 23 ------- null}
h -t 0.199 -s 1 -d 3 -p cbr -e 1000 -c 0 -i 48 -a 0 -x {1.0 4.1 -1 ------- null}
r -t 0.20032 -s 2 -d 3 -p tcp -e 40 -c 1 -i 23 -a 1 -x {2.0 4.0 0 ------- null}
+ -t 0.20032 -s 3 -d 4 -p tcp -e 40 -c 1 -i 23 -a 1 -x {2.0 4.0 0 ------- null}
r -t 0.202 -s 3 -d 4 -p cbr -e 1000 -c 0 -i 1 -a 0 -x {1.0 4.1 0 ------- null}
r -t 0.202 -s 0 -d 3 -p cbr -e 1000 -c 2 -i 22 -a 2 -x {0.0 4.1 11 ------- null}
+ -t 0.202 -s 3 -d 4 -p cbr -e 1000 -c 2 -i 22 -a 2 -x {0.0 4.1 11 ------- null}
- -t 0.202 -s 3 -d 4 -p tcp -e 40 -c 1 -i 23 -a 1 -x {2.0 4.0 0 ------- null}
h -t 0.202 -s 3 -d 4 -p tcp -e 40 -c 1 -i 23 -a 1 -x {2.0 4.0 -1 ------- null}
+ -t 0.202 -s 0 -d 3 -p cbr -e 1000 -c 2 -i 49 -a 2 -x {0.0 4.1 24 ------- null}
- -t 0.202 -s 0 -d 3 -p cbr -e 1000 -c 2 -i 49 -a 2 -x {0.0 4.1 24 ------- null}
h -t 0.202 -s 0 -d 3 -p cbr -e 1000 -c 2 -i 49 -a 2 -x {0.0 4.1 -1 ------- null}
- -t 0.20216 -s 3 -d 4 -p cbr -e 1000 -c 2 -i 22 -a 2 -x {0.0 4.1 11 ------- null}
h -t 0.20216 -s 3 -d 4 -p cbr -e 1000 -c 2 -i 22 -a 2 -x {0.0 4.1 -1 ------- null}
r -t 0.205666666666667 -s 1 -d 3 -p cbr -e 1000 -c 0 -i 24 -a 0 -x {1.0 4.1 11 ------- null}
+ -t 0.205666666666667 -s 3 -d 4 -p cbr -e 1000 -c 0 -i 24 -a 0 -x {1.0 4.1 11 ------- null}
r -t 0.206 -s 3 -d 4 -p cbr -e 1000 -c 2 -i 2 -a 2 -x {0.0 4.1 1 ------- null}
- -t 0.20616 -s 3 -d 4 -p cbr -e 1000 -c 0 -i 24 -a 0 -x {1.0 4.1 11 ------- null}
h -t 0.20616 -s 3 -d 4 -p cbr -e 1000 -c 0 -i 24 -a 0 -x {1.0 4.1 -1 ------- null}
+ -t 0.207 -s 1 -d 3 -p cbr -e 1000 -c 0 -i 50 -a 0 -x {1.0 4.1 24 ------- null}
- -t 0.207 -s 1 -d 3 -p cbr -e 1000 -c 0 -i 50 -a 0 -x {1.0 4.1 24 ------- null}
h -t 0.207 -s 1 -d 3 -p cbr -e 1000 -c 0 -i 50 -a 0 -x {1.0 4.1 -1 ------- null}
r -t 0.21 -s 3 -d 4 -p cbr -e 1000 -c 0 -i 3 -a 0 -x {1.0 4.1 1 ------- null}
r -t 0.21 -s 0 -d 3 -p cbr -e 1000 -c 2 -i 25 -a 2 -x {0.0 4.1 12 ------- null}
+ -t 0.21 -s 3 -d 4 -p cbr -e 1000 -c 2 -i 25 -a 2 -x {0.0 4.1 12 ------- null}
+ -t 0.21 -s 0 -d 3 -p cbr -e 1000 -c 2 -i 51 -a 2 -x {0.0 4.1 25 ------- null}
- -t 0.21 -s 0 -d 3 -p cbr -e 1000 -c 2 -i 51 -a 2 -x {0.0 4.1 25 ------- null}
h -t 0.21 -s 0 -d 3 -p cbr -e 1000 -c 2 -i 51 -a 2 -x {0.0 4.1 -1 ------- null}
- -t 0.21016 -s 3 -d 4 -p cbr -e 1000 -c 2 -i 25 -a 2 -x {0.0 4.1 12 ------- null}
h -t 0.21016 -s 3 -d 4 -p cbr -e 1000 -c 2 -i 25 -a 2 -x {0.0 4.1 -1 ------- null}
r -t 0.213666666666667 -s 1 -d 3 -p cbr -e 1000 -c 0 -i 26 -a 0 -x {1.0 4.1 12 ------- null}
+ -t 0.213666666666667 -s 3 -d 4 -p cbr -e 1000 -c 0 -i 26 -a 0 -x {1.0 4.1 12 ------- null}
r -t 0.214 -s 3 -d 4 -p cbr -e 1000 -c 2 -i 4 -a 2 -x {0.0 4.1 2 ------- null}
- -t 0.21416 -s 3 -d 4 -p cbr -e 1000 -c 0 -i 26 -a 0 -x {1.0 4.1 12 ------- null}
h -t 0.21416 -s 3 -d 4 -p cbr -e 1000 -c 0 -i 26 -a 0 -x {1.0 4.1 -1 ------- null}
+ -t 0.215 -s 1 -d 3 -p cbr -e 1000 -c 0 -i 52 -a 0 -x {1.0 4.1 25 ------- null}
- -t 0.215 -s 1 -d 3 -p cbr -e 1000 -c 0 -i 52 -a 0 -x {1.0 4.1 25 ------- null}
h -t 0.215 -s 1 -d 3 -p cbr -e 1000 -c 0 -i 52 -a 0 -x {1.0 4.1 -1 ------- null}
r -t 0.218 -s 3 -d 4 -p cbr -e 1000 -c 0 -i 5 -a 0 -x {1.0 4.1 2 ------- null}
r -t 0.218 -s 0 -d 3 -p cbr -e 1000 -c 2 -i 27 -a 2 -x {0.0 4.1 13 ------- null}
+ -t 0.218 -s 3 -d 4 -p cbr -e 1000 -c 2 -i 27 -a 2 -x {0.0 4.1 13 ------- null}
+ -t 0.218 -s 0 -d 3 -p cbr -e 1000 -c 2 -i 53 -a 2 -x {0.0 4.1 26 ------- null}
- -t 0.218 -s 0 -d 3 -p cbr -e 1000 -c 2 -i 53 -a 2 -x {0.0 4.1 26 ------- null}
h -t 0.218 -s 0 -d 3 -p cbr -e 1000 -c 2 -i 53 -a 2 -x {0.0 4.1 -1 ------- null}
- -t 0.21816 -s 3 -d 4 -p cbr -e 1000 -c 2 -i 27 -a 2 -x {0.0 4.1 13 ------- null}
h -t 0.21816 -s 3 -d 4 -p cbr -e 1000 -c 2 -i 27 -a 2 -x {0.0 4.1 -1 ------- null}
r -t 0.221666666666667 -s 1 -d 3 -p cbr -e 1000 -c 0 -i 28 -a 0 -x {1.0 4.1 13 ------- null}
+ -t 0.221666666666667 -s 3 -d 4 -p cbr -e 1000 -c 0 -i 28 -a 0 -x {1.0 4.1 13 ------- null}
r -t 0.222 -s 3 -d 4 -p cbr -e 1000 -c 2 -i 6 -a 2 -x {0.0 4.1 3 ------- null}
- -t 0.22216 -s 3 -d 4 -p cbr -e 1000 -c 0 -i 28 -a 0 -x {1.0 4.1 13 ------- null}
h -t 0.22216 -s 3 -d 4 -p cbr -e 1000 -c 0 -i 28 -a 0 -x {1.0 4.1 -1 ------- null}
+ -t 0.223 -s 1 -d 3 -p cbr -e 1000 -c 0 -i 54 -a 0 -x {1.0 4.1 26 ------- null}
- -t 0.223 -s 1 -d 3 -p cbr -e 1000 -c 0 -i 54 -a 0 -x {1.0 4.1 26 ------- null}
h -t 0.223 -s 1 -d 3 -p cbr -e 1000 -c 0 -i 54 -a 0 -x {1.0 4.1 -1 ------- null}
r -t 0.226 -s 3 -d 4 -p cbr -e 1000 -c 0 -i 7 -a 0 -x {1.0 4.1 3 ------- null}
r -t 0.226 -s 0 -d 3 -p cbr -e 1000 -c 2 -i 29 -a 2 -x {0.0 4.1 14 ------- null}
+ -t 0.226 -s 3 -d 4 -p cbr -e 1000 -c 2 -i 29 -a 2 -x {0.0 4.1 14 ------- null}
+ -t 0.226 -s 0 -d 3 -p cbr -e 1000 -c 2 -i 55 -a 2 -x {0.0 4.1 27 ------- null}
- -t 0.226 -s 0 -d 3 -p cbr -e 1000 -c 2 -i 55 -a 2 -x {0.0 4.1 27 ------- null}
h -t 0.226 -s 0 -d 3 -p cbr -e 1000 -c 2 -i 55 -a 2 -x {0.0 4.1 -1 ------- null}
- -t 0.22616 -s 3 -d 4 -p cbr -e 1000 -c 2 -i 29 -a 2 -x {0.0 4.1 14 ------- null}
h -t 0.22616 -s 3 -d 4 -p cbr -e 1000 -c 2 -i 29 -a 2 -x {0.0 4.1 -1 ------- null}
r -t 0.229666666666667 -s 1 -d 3 -p cbr -e 1000 -c 0 -i 30 -a 0 -x {1.0 4.1 14 ------- null}
+ -t 0.229666666666667 -s 3 -d 4 -p cbr -e 1000 -c 0 -i 30 -a 0 -x {1.0 4.1 14 ------- null}
r -t 0.23 -s 3 -d 4 -p cbr -e 1000 -c 2 -i 8 -a 2 -x {0.0 4.1 4 ------- null}
- -t 0.23016 -s 3 -d 4 -p cbr -e 1000 -c 0 -i 30 -a 0 -x {1.0 4.1 14 ------- null}
h -t 0.23016 -s 3 -d 4 -p cbr -e 1000 -c 0 -i 30 -a 0 -x {1.0 4.1 -1 ------- null}
+ -t 0.231 -s 1 -d 3 -p cbr -e 1000 -c 0 -i 56 -a 0 -x {1.0 4.1 27 ------- null}
- -t 0.231 -s 1 -d 3 -p cbr -e 1000 -c 0 -i 56 -a 0 -x {1.0 4.1 27 ------- null}
h -t 0.231 -s 1 -d 3 -p cbr -e 1000 -c 0 -i 56 -a 0 -x {1.0 4.1 -1 ------- null}
r -t 0.234 -s 3 -d 4 -p cbr -e 1000 -c 0 -i 9 -a 0 -x {1.0 4.1 4 ------- null}
r -t 0.234 -s 0 -d 3 -p cbr -e 1000 -c 2 -i 31 -a 2 -x {0.0 4.1 15 ------- null}
+ -t 0.234 -s 3 -d 4 -p cbr -e 1000 -c 2 -i 31 -a 2 -x {0.0 4.1 15 ------- null}
+ -t 0.234 -s 0 -d 3 -p cbr -e 1000 -c 2 -i 57 -a 2 -x {0.0 4.1 28 ------- null}
- -t 0.234 -s 0 -d 3 -p cbr -e 1000 -c 2 -i 57 -a 2 -x {0.0 4.1 28 ------- null}
h -t 0.234 -s 0 -d 3 -p cbr -e 1000 -c 2 -i 57 -a 2 -x {0.0 4.1 -1 ------- null}
- -t 0.23416 -s 3 -d 4 -p cbr -e 1000 -c 2 -i 31 -a 2 -x {0.0 4.1 15 ------- null}
h -t 0.23416 -s 3 -d 4 -p cbr -e 1000 -c 2 -i 31 -a 2 -x {0.0 4.1 -1 ------- null}
r -t 0.237666666666667 -s 1 -d 3 -p cbr -e 1000 -c 0 -i 32 -a 0 -x {1.0 4.1 15 ------- null}
+ -t 0.237666666666667 -s 3 -d 4 -p cbr -e 1000 -c 0 -i 32 -a 0 -x {1.0 4.1 15 ------- null}
r -t 0.238 -s 3 -d 4 -p cbr -e 1000 -c 2 -i 10 -a 2 -x {0.0 4.1 5 ------- null}
- -t 0.23816 -s 3 -d 4 -p cbr -e 1000 -c 0 -i 32 -a 0 -x {1.0 4.1 15 ------- null}
h -t 0.23816 -s 3 -d 4 -p cbr -e 1000 -c 0 -i 32 -a 0 -x {1.0 4.1 -1 ------- null}
+ -t 0.239 -s 1 -d 3 -p cbr -e 1000 -c 0 -i 58 -a 0 -x {1.0 4.1 28 ------- null}
- -t 0.239 -s 1 -d 3 -p cbr -e 1000 -c 0 -i 58 -a 0 -x {1.0 4.1 28 ------- null}
h -t 0.239 -s 1 -d 3 -p cbr -e 1000 -c 0 -i 58 -a 0 -x {1.0 4.1 -1 ------- null}
r -t 0.242 -s 3 -d 4 -p cbr -e 1000 -c 0 -i 11 -a 0 -x {1.0 4.1 5 ------- null}
r -t 0.242 -s 0 -d 3 -p cbr -e 1000 -c 2 -i 33 -a 2 -x {0.0 4.1 16 ------- null}
+ -t 0.242 -s 3 -d 4 -p cbr -e 1000 -c 2 -i 33 -a 2 -x {0.0 4.1 16 ------- null}
+ -t 0.242 -s 0 -d 3 -p cbr -e 1000 -c 2 -i 59 -a 2 -x {0.0 4.1 29 ------- null}
- -t 0.242 -s 0 -d 3 -p cbr -e 1000 -c 2 -i 59 -a 2 -x {0.0 4.1 29 ------- null}
h -t 0.242 -s 0 -d 3 -p cbr -e 1000 -c 2 -i 59 -a 2 -x {0.0 4.1 -1 ------- null}
- -t 0.24216 -s 3 -d 4 -p cbr -e 1000 -c 2 -i 33 -a 2 -x {0.0 4.1 16 ------- null}
h -t 0.24216 -s 3 -d 4 -p cbr -e 1000 -c 2 -i 33 -a 2 -x {0.0 4.1 -1 ------- null}
r -t 0.245666666666667 -s 1 -d 3 -p cbr -e 1000 -c 0 -i 34 -a 0 -x {1.0 4.1 16 ------- null}
+ -t 0.245666666666667 -s 3 -d 4 -p cbr -e 1000 -c 0 -i 34 -a 0 -x {1.0 4.1 16 ------- null}
r -t 0.246 -s 3 -d 4 -p cbr -e 1000 -c 2 -i 12 -a 2 -x {0.0 4.1 6 ------- null}
- -t 0.24616 -s 3 -d 4 -p cbr -e 1000 -c 0 -i 34 -a 0 -x {1.0 4.1 16 ------- null}
h -t 0.24616 -s 3 -d 4 -p cbr -e 1000 -c 0 -i 34 -a 0 -x {1.0 4.1 -1 ------- null}
+ -t 0.247 -s 1 -d 3 -p cbr -e 1000 -c 0 -i 60 -a 0 -x {1.0 4.1 29 ------- null}
- -t 0.247 -s 1 -d 3 -p cbr -e 1000 -c 0 -i 60 -a 0 -x {1.0 4.1 29 ------- null}
h -t 0.247 -s 1 -d 3 -p cbr -e 1000 -c 0 -i 60 -a 0 -x {1.0 4.1 -1 ------- null}
r -t 0.25 -s 3 -d 4 -p cbr -e 1000 -c 0 -i 13 -a 0 -x {1.0 4.1 6 ------- null}
r -t 0.25 -s 0 -d 3 -p cbr -e 1000 -c 2 -i 35 -a 2 -x {0.0 4.1 17 ------- null}
+ -t 0.25 -s 3 -d 4 -p cbr -e 1000 -c 2 -i 35 -a 2 -x {0.0 4.1 17 ------- null}
+ -t 0.25 -s 0 -d 3 -p cbr -e 1000 -c 2 -i 61 -a 2 -x {0.0 4.1 30 ------- null}
- -t 0.25 -s 0 -d 3 -p cbr -e 1000 -c 2 -i 61 -a 2 -x {0.0 4.1 30 ------- null}
h -t 0.25 -s 0 -d 3 -p cbr -e 1000 -c 2 -i 61 -a 2 -x {0.0 4.1 -1 ------- null}
- -t 0.25016 -s 3 -d 4 -p cbr -e 1000 -c 2 -i 35 -a 2 -x {0.0 4.1 17 ------- null}
h -t 0.25016 -s 3 -d 4 -p cbr -e 1000 -c 2 -i 35 -a 2 -x {0.0 4.1 -1 ------- null}
r -t 0.253666666666667 -s 1 -d 3 -p cbr -e 1000 -c 0 -i 36 -a 0 -x {1.0 4.1 17 ------- null}
+ -t 0.253666666666667 -s 3 -d 4 -p cbr -e 1000 -c 0 -i 36 -a 0 -x {1.0 4.1 17 ------- null}
r -t 0.254 -s 3 -d 4 -p cbr -e 1000 -c 2 -i 14 -a 2 -x {0.0 4.1 7 ------- null}
- -t 0.25416 -s 3 -d 4 -p cbr -e 1000 -c 0 -i 36 -a 0 -x {1.0 4.1 17 ------- null}
h -t 0.25416 -s 3 -d 4 -p cbr -e 1000 -c 0 -i 36 -a 0 -x {1.0 4.1 -1 ------- null}
+ -t 0.255 -s 1 -d 3 -p cbr -e 1000 -c 0 -i 62 -a 0 -x {1.0 4.1 30 ------- null}
- -t 0.255 -s 1 -d 3 -p cbr -e 1000 -c 0 -i 62 -a 0 -x {1.0 4.1 30 ------- null}
h -t 0.255 -s 1 -d 3 -p cbr -e 1000 -c 0 -i 62 -a 0 -x {1.0 4.1 -1 ------- null}
r -t 0.258 -s 3 -d 4 -p cbr -e 1000 -c 0 -i 15 -a 0 -x {1.0 4.1 7 ------- null}
r -t 0.258 -s 0 -d 3 -p cbr -e 1000 -c 2 -i 37 -a 2 -x {0.0 4.1 18 ------- null}
+ -t 0.258 -s 3 -d 4 -p cbr -e 1000 -c 2 -i 37 -a 2 -x {0.0 4.1 18 ------- null}
+ -t 0.258 -s 0 -d 3 -p cbr -e 1000 -c 2 -i 63 -a 2 -x {0.0 4.1 31 ------- null}
- -t 0.258 -s 0 -d 3 -p cbr -e 1000 -c 2 -i 63 -a 2 -x {0.0 4.1 31 ------- null}
h -t 0.258 -s 0 -d 3 -p cbr -e 1000 -c 2 -i 63 -a 2 -x {0.0 4.1 -1 ------- null}