V -t * -v 1.0a5 -a 0
A -t * -n 1 -p 0 -o 0x7fffffff -c 30 -a 1
A -t * -h 1 -m 1073741823 -s 0
c -t * -i 4 -n Green
c -t * -i 1 -n Blue
c -t * -i 2 -n Magenta
c -t * -i 3 -n Red
n -t * -a 4 -s 4 -S UP -v circle -c black -i black
n -t * -a 0 -s 0 -S UP -v circle -c black -i black
n -t * -a 5 -s 5 -S UP -v circle -c black -i black
n -t * -a 1 -s 1 -S UP -v circle -c black -i black
n -t * -a 2 -s 2 -S UP -v circle -c black -i black
n -t * -a 3 -s 3 -S UP -v circle -c black -i black
l -t * -s 0 -d 4 -S UP -r 1000000 -D 0.10000000000000001 -c black -o right
l -t * -s 1 -d 4 -S UP -r 1000000 -D 0.10000000000000001 -c black -o right-down
l -t * -s 2 -d 4 -S UP -r 1000000 -D 0.10000000000000001 -c black -o left-down
l -t * -s 3 -d 4 -S UP -r 1000000 -D 0.10000000000000001 -c black -o left
l -t * -s 4 -d 5 -S UP -r 1000000 -D 0.02 -c black -o down
q -t * -s 5 -d 4 -a 1.0
q -t * -s 4 -d 5 -a 1.0
+ -t 0.1 -s 0 -d 4 -p tcp -e 40 -c 1 -i 0 -a 1 -x {0.0 5.0 0 ------- null}
- -t 0.1 -s 0 -d 4 -p tcp -e 40 -c 1 -i 0 -a 1 -x {0.0 5.0 0 ------- null}
h -t 0.1 -s 0 -d 4 -p tcp -e 40 -c 1 -i 0 -a 1 -x {0.0 5.0 -1 ------- null}
+ -t 0.1 -s 1 -d 4 -p tcp -e 40 -c 2 -i 1 -a 2 -x {1.0 5.1 0 ------- null}
- -t 0.1 -s 1 -d 4 -p tcp -e 40 -c 2 -i 1 -a 2 -x {1.0 5.1 0 ------- null}
h -t 0.1 -s 1 -d 4 -p tcp -e 40 -c 2 -i 1 -a 2 -x {1.0 5.1 -1 ------- null}
+ -t 0.1 -s 2 -d 4 -p tcp -e 40 -c 3 -i 2 -a 3 -x {2.0 5.2 0 ------- null}
- -t 0.1 -s 2 -d 4 -p tcp -e 40 -c 3 -i 2 -a 3 -x {2.0 5.2 0 ------- null}
h -t 0.1 -s 2 -d 4 -p tcp -e 40 -c 3 -i 2 -a 3 -x {2.0 5.2 -1 ------- null}
+ -t 0.1 -s 3 -d 4 -p tcp -e 40 -c 4 -i 3 -a 4 -x {3.0 5.3 0 ------- null}
- -t 0.1 -s 3 -d 4 -p tcp -e 40 -c 4 -i 3 -a 4 -x {3.0 5.3 0 ------- null}
h -t 0.1 -s 3 -d 4 -p tcp -e 40 -c 4 -i 3 -a 4 -x {3.0 5.3 -1 ------- null}
r -t 0.20032 -s 0 -d 4 -p tcp -e 40 -c 1 -i 0 -a 1 -x {0.0 5.0 0 ------- null}
+ -t 0.20032 -s 4 -d 5 -p tcp -e 40 -c 1 -i 0 -a 1 -x {0.0 5.0 0 ------- null}
- -t 0.20032 -s 4 -d 5 -p tcp -e 40 -c 1 -i 0 -a 1 -x {0.0 5.0 0 ------- null}
h -t 0.20032 -s 4 -d 5 -p tcp -e 40 -c 1 -i 0 -a 1 -x {0.0 5.0 -1 ------- null}
r -t 0.20032 -s 1 -d 4 -p tcp -e 40 -c 2 -i 1 -a 2 -x {1.0 5.1 0 ------- null}
+ -t 0.20032 -s 4 -d 5 -p tcp -e 40 -c 2 -i 1 -a 2 -x {1.0 5.1 0 ------- null}
r -t 0.20032 -s 2 -d 4 -p tcp -e 40 -c 3 -i 2 -a 3 -x {2.0 5.2 0 ------- null}
+ -t 0.20032 -s 4 -d 5 -p tcp -e 40 -c 3 -i 2 -a 3 -x {2.0 5.2 0 ------- null}
d -t 0.20032 -s 4 -d 5 -p tcp -e 40 -c 3 -i 2 -a 3 -x {2.0 5.2 0 ------- null}
r -t 0.20032 -s 3 -d 4 -p tcp -e 40 -c 4 -i 3 -a 4 -x {3.0 5.3 0 ------- null}
+ -t 0.20032 -s 4 -d 5 -p tcp -e 40 -c 4 -i 3 -a 4 -x {3.0 5.3 0 ------- null}
d -t 0.20032 -s 4 -d 5 -p tcp -e 40 -c 4 -i 3 -a 4 -x {3.0 5.3 0 ------- null}
- -t 0.20064 -s 4 -d 5 -p tcp -e 40 -c 2 -i 1 -a 2 -x {1.0 5.1 0 ------- null}
h -t 0.20064 -s 4 -d 5 -p tcp -e 40 -c 2 -i 1 -a 2 -x {1.0 5.1 -1 ------- null}
r -t 0.22064 -s 4 -d 5 -p tcp -e 40 -c 1 -i 0 -a 1 -x {0.0 5.0 0 ------- null}
+ -t 0.22064 -s 5 -d 4 -p ack -e 40 -c 1 -i 4 -a 1 -x {5.0 0.0 0 ------- null}
- -t 0.22064 -s 5 -d 4 -p ack -e 40 -c 1 -i 4 -a 1 -x {5.0 0.0 0 ------- null}
h -t 0.22064 -s 5 -d 4 -p ack -e 40 -c 1 -i 4 -a 1 -x {5.0 0.0 -1 ------- null}
r -t 0.22096 -s 4 -d 5 -p tcp -e 40 -c 2 -i 1 -a 2 -x {1.0 5.1 0 ------- null}
+ -t 0.22096 -s 5 -d 4 -p ack -e 40 -c 2 -i 5 -a 2 -x {5.1 1.0 0 ------- null}
- -t 0.22096 -s 5 -d 4 -p ack -e 40 -c 2 -i 5 -a 2 -x {5.1 1.0 0 ------- null}
h -t 0.22096 -s 5 -d 4 -p ack -e 40 -c 2 -i 5 -a 2 -x {5.1 1.0 -1 ------- null}
r -t 0.24096 -s 5 -d 4 -p ack -e 40 -c 1 -i 4 -a 1 -x {5.0 0.0 0 ------- null}
+ -t 0.24096 -s 4 -d 0 -p ack -e 40 -c 1 -i 4 -a 1 -x {5.0 0.0 0 ------- null}
- -t 0.24096 -s 4 -d 0 -p ack -e 40 -c 1 -i 4 -a 1 -x {5.0 0.0 0 ------- null}
h -t 0.24096 -s 4 -d 0 -p ack -e 40 -c 1 -i 4 -a 1 -x {5.0 0.0 -1 ------- null}
r -t 0.24128 -s 5 -d 4 -p ack -e 40 -c 2 -i 5 -a 2 -x {5.1 1.0 0 ------- null}
+ -t 0.24128 -s 4 -d 1 -p ack -e 40 -c 2 -i 5 -a 2 -x {5.1 1.0 0 ------- null}
- -t 0.24128 -s 4 -d 1 -p ack -e 40 -c 2 -i 5 -a 2 -x {5.1 1.0 0 ------- null}
h -t 0.24128 -s 4 -d 1 -p ack -e 40 -c 2 -i 5 -a 2 -x {5.1 1.0 -1 ------- null}
r -t 0.34128 -s 4 -d 0 -p ack -e 40 -c 1 -i 4 -a 1 -x {5.0 0.0 0 ------- null}
+ -t 0.34128 -s 0 -d 4 -p tcp -e 1040 -c 1 -i 6 -a 1 -x {0.0 5.0 1 ------- null}
- -t 0.34128 -s 0 -d 4 -p tcp -e 1040 -c 1 -i 6 -a 1 -x {0.0 5.0 1 ------- null}
h -t 0.34128 -s 0 -d 4 -p tcp -e 1040 -c 1 -i 6 -a 1 -x {0.0 5.0 -1 ------- null}
+ -t 0.34128 -s 0 -d 4 -p tcp -e 1040 -c 1 -i 7 -a 1 -x {0.0 5.0 2 ------- null}
r -t 0.3416 -s 4 -d 1 -p ack -e 40 -c 2 -i 5 -a 2 -x {5.1 1.0 0 ------- null}
+ -t 0.3416 -s 1 -d 4 -p tcp -e 1040 -c 2 -i 8 -a 2 -x {1.0 5.1 1 ------- null}
- -t 0.3416 -s 1 -d 4 -p tcp -e 1040 -c 2 -i 8 -a 2 -x {1.0 5.1 1 ------- null}
h -t 0.3416 -s 1 -d 4 -p tcp -e 1040 -c 2 -i 8 -a 2 -x {1.0 5.1 -1 ------- null}
+ -t 0.3416 -s 1 -d 4 -p tcp -e 1040 -c 2 -i 9 -a 2 -x {1.0 5.1 2 ------- null}
- -t 0.3496 -s 0 -d 4 -p tcp -e 1040 -c 1 -i 7 -a 1 -x {0.0 5.0 2 ------- null}
h -t 0.3496 -s 0 -d 4 -p tcp -e 1040 -c 1 -i 7 -a 1 -x {0.0 5.0 -1 ------- null}
- -t 0.34992 -s 1 -d 4 -p tcp -e 1040 -c 2 -i 9 -a 2 -x {1.0 5.1 2 ------- null}
h -t 0.34992 -s 1 -d 4 -p tcp -e 1040 -c 2 -i 9 -a 2 -x {1.0 5.1 -1 ------- null}
r -t 0.4496 -s 0 -d 4 -p tcp -e 1040 -c 1 -i 6 -a 1 -x {0.0 5.0 1 ------- null}
+ -t 0.4496 -s 4 -d 5 -p tcp -e 1040 -c 1 -i 6 -a 1 -x {0.0 5.0 1 ------- null}
- -t 0.4496 -s 4 -d 5 -p tcp -e 1040 -c 1 -i 6 -a 1 -x {0.0 5.0 1 ------- null}
h -t 0.4496 -s 4 -d 5 -p tcp -e 1040 -c 1 -i 6 -a 1 -x {0.0 5.0 -1 ------- null}
r -t 0.44992 -s 1 -d 4 -p tcp -e 1040 -c 2 -i 8 -a 2 -x {1.0 5.1 1 ------- null}
+ -t 0.44992 -s 4 -d 5 -p tcp -e 1040 -c 2 -i 8 -a 2 -x {1.0 5.1 1 ------- null}
r -t 0.45792 -s 0 -d 4 -p tcp -e 1040 -c 1 -i 7 -a 1 -x {0.0 5.0 2 ------- null}
+ -t 0.45792 -s 4 -d 5 -p tcp -e 1040 -c 1 -i 7 -a 1 -x {0.0 5.0 2 ------- null}
d -t 0.45792 -s 4 -d 5 -p tcp -e 1040 -c 1 -i 7 -a 1 -x {0.0 5.0 2 ------- null}
- -t 0.45792 -s 4 -d 5 -p tcp -e 1040 -c 2 -i 8 -a 2 -x {1.0 5.1 1 ------- null}
h -t 0.45792 -s 4 -d 5 -p tcp -e 1040 -c 2 -i 8 -a 2 -x {1.0 5.1 -1 ------- null}
r -t 0.45824 -s 1 -d 4 -p tcp -e 1040 -c 2 -i 9 -a 2 -x {1.0 5.1 2 ------- null}
+ -t 0.45824 -s 4 -d 5 -p tcp -e 1040 -c 2 -i 9 -a 2 -x {1.0 5.1 2 ------- null}
- -t 0.46624 -s 4 -d 5 -p tcp -e 1040 -c 2 -i 9 -a 2 -x {1.0 5.1 2 ------- null}
h -t 0.46624 -s 4 -d 5 -p tcp -e 1040 -c 2 -i 9 -a 2 -x {1.0 5.1 -1 ------- null}
r -t 0.47792 -s 4 -d 5 -p tcp -e 1040 -c 1 -i 6 -a 1 -x {0.0 5.0 1 ------- null}
+ -t 0.47792 -s 5 -d 4 -p ack -e 40 -c 1 -i 10 -a 1 -x {5.0 0.0 1 ------- null}
- -t 0.47792 -s 5 -d 4 -p ack -e 40 -c 1 -i 10 -a 1 -x {5.0 0.0 1 ------- null}
h -t 0.47792 -s 5 -d 4 -p ack -e 40 -c 1 -i 10 -a 1 -x {5.0 0.0 -1 ------- null}
r -t 0.48624 -s 4 -d 5 -p tcp -e 1040 -c 2 -i 8 -a 2 -x {1.0 5.1 1 ------- null}
+ -t 0.48624 -s 5 -d 4 -p ack -e 40 -c 2 -i 11 -a 2 -x {5.1 1.0 1 ------- null}
- -t 0.48624 -s 5 -d 4 -p ack -e 40 -c 2 -i 11 -a 2 -x {5.1 1.0 1 ------- null}
h -t 0.48624 -s 5 -d 4 -p ack -e 40 -c 2 -i 11 -a 2 -x {5.1 1.0 -1 ------- null}
r -t 0.49456 -s 4 -d 5 -p tcp -e 1040 -c 2 -i 9 -a 2 -x {1.0 5.1 2 ------- null}
+ -t 0.49456 -s 5 -d 4 -p ack -e 40 -c 2 -i 12 -a 2 -x {5.1 1.0 2 ------- null}
- -t 0.49456 -s 5 -d 4 -p ack -e 40 -c 2 -i 12 -a 2 -x {5.1 1.0 2 ------- null}
h -t 0.49456 -s 5 -d 4 -p ack -e 40 -c 2 -i 12 -a 2 -x {5.1 1.0 -1 ------- null}
r -t 0.49824 -s 5 -d 4 -p ack -e 40 -c 1 -i 10 -a 1 -x {5.0 0.0 1 ------- null}
+ -t 0.49824 -s 4 -d 0 -p ack -e 40 -c 1 -i 10 -a 1 -x {5.0 0.0 1 ------- null}
- -t 0.49824 -s 4 -d 0 -p ack -e 40 -c 1 -i 10 -a 1 -x {5.0 0.0 1 ------- null}
h -t 0.49824 -s 4 -d 0 -p ack -e 40 -c 1 -i 10 -a 1 -x {5.0 0.0 -1 ------- null}
r -t 0.50656 -s 5 -d 4 -p ack -e 40 -c 2 -i 11 -a 2 -x {5.1 1.0 1 ------- null}
+ -t 0.50656 -s 4 -d 1 -p ack -e 40 -c 2 -i 11 -a 2 -x {5.1 1.0 1 ------- null}
- -t 0.50656 -s 4 -d 1 -p ack -e 40 -c 2 -i 11 -a 2 -x {5.1 1.0 1 ------- null}
h -t 0.50656 -s 4 -d 1 -p ack -e 40 -c 2 -i 11 -a 2 -x {5.1 1.0 -1 ------- null}
r -t 0.51488 -s 5 -d 4 -p ack -e 40 -c 2 -i 12 -a 2 -x {5.1 1.0 2 ------- null}
+ -t 0.51488 -s 4 -d 1 -p ack -e 40 -c 2 -i 12 -a 2 -x {5.1 1.0 2 ------- null}
- -t 0.51488 -s 4 -d 1 -p ack -e 40 -c 2 -i 12 -a 2 -x {5.1 1.0 2 ------- null}
h -t 0.51488 -s 4 -d 1 -p ack -e 40 -c 2 -i 12 -a 2 -x {5.1 1.0 -1 ------- null}
r -t 0.59856 -s 4 -d 0 -p ack -e 40 -c 1 -i 10 -a 1 -x {5.0 0.0 1 ------- null}
+ -t 0.59856 -s 0 -d 4 -p tcp -e 1040 -c 1 -i 13 -a 1 -x {0.0 5.0 3 ------- null}
- -t 0.59856 -s 0 -d 4 -p tcp -e 1040 -c 1 -i 13 -a 1 -x {0.0 5.0 3 ------- null}
h -t 0.59856 -s 0 -d 4 -p tcp -e 1040 -c 1 -i 13 -a 1 -x {0.0 5.0 -1 ------- null}
+ -t 0.59856 -s 0 -d 4 -p tcp -e 1040 -c 1 -i 14 -a 1 -x {0.0 5.0 4 ------- null}
r -t 0.60688 -s 4 -d 1 -p ack -e 40 -c 2 -i 11 -a 2 -x {5.1 1.0 1 ------- null}
+ -t 0.60688 -s 1 -d 4 -p tcp -e 1040 -c 2 -i 15 -a 2 -x {1.0 5.1 3 ------- null}
- -t 0.60688 -s 1 -d 4 -p tcp -e 1040 -c 2 -i 15 -a 2 -x {1.0 5.1 3 ------- null}
h -t 0.60688 -s 1 -d 4 -p tcp -e 1040 -c 2 -i 15 -a 2 -x {1.0 5.1 -1 ------- null}
+ -t 0.60688 -s 1 -d 4 -p tcp -e 1040 -c 2 -i 16 -a 2 -x {1.0 5.1 4 ------- null}
- -t 0.60688 -s 0 -d 4 -p tcp -e 1040 -c 1 -i 14 -a 1 -x {0.0 5.0 4 ------- null}
h -t 0.60688 -s 0 -d 4 -p tcp -e 1040 -c 1 -i 14 -a 1 -x {0.0 5.0 -1 ------- null}
r -t 0.6152 -s 4 -d 1 -p ack -e 40 -c 2 -i 12 -a 2 -x {5.1 1.0 2 ------- null}
+ -t 0.6152 -s 1 -d 4 -p tcp -e 1040 -c 2 -i 17 -a 2 -x {1.0 5.1 5 ------- null}
+ -t 0.6152 -s 1 -d 4 -p tcp -e 1040 -c 2 -i 18 -a 2 -x {1.0 5.1 6 ------- null}
- -t 0.6152 -s 1 -d 4 -p tcp -e 1040 -c 2 -i 16 -a 2 -x {1.0 5.1 4 ------- null}
h -t 0.6152 -s 1 -d 4 -p tcp -e 1040 -c 2 -i 16 -a 2 -x {1.0 5.1 -1 ------- null}
- -t 0.62352 -s 1 -d 4 -p tcp -e 1040 -c 2 -i 17 -a 2 -x {1.0 5.1 5 ------- null}
h -t 0.62352 -s 1 -d 4 -p tcp -e 1040 -c 2 -i 17 -a 2 -x {1.0 5.1 -1 ------- null}
- -t 0.63184 -s 1 -d 4 -p tcp -e 1040 -c 2 -i 18 -a 2 -x {1.0 5.1 6 ------- null}
h -t 0.63184 -s 1 -d 4 -p tcp -e 1040 -c 2 -i 18 -a 2 -x {1.0 5.1 -1 ------- null}
r -t 0.70688 -s 0 -d 4 -p tcp -e 1040 -c 1 -i 13 -a 1 -x {0.0 5.0 3 ------- null}
+ -t 0.70688 -s 4 -d 5 -p tcp -e 1040 -c 1 -i 13 -a 1 -x {0.0 5.0 3 ------- null}
- -t 0.70688 -s 4 -d 5 -p tcp -e 1040 -c 1 -i 13 -a 1 -x {0.0 5.0 3 ------- null}
h -t 0.70688 -s 4 -d 5 -p tcp -e 1040 -c 1 -i 13 -a 1 -x {0.0 5.0 -1 ------- null}
r -t 0.7152 -s 1 -d 4 -p tcp -e 1040 -c 2 -i 15 -a 2 -x {1.0 5.1 3 ------- null}
+ -t 0.7152 -s 4 -d 5 -p tcp -e 1040 -c 2 -i 15 -a 2 -x {1.0 5.1 3 ------- null}
r -t 0.7152 -s 0 -d 4 -p tcp -e 1040 -c 1 -i 14 -a 1 -x {0.0 5.0 4 ------- null}
+ -t 0.7152 -s 4 -d 5 -p tcp -e 1040 -c 1 -i 14 -a 1 -x {0.0 5.0 4 ------- null}
d -t 0.7152 -s 4 -d 5 -p tcp -e 1040 -c 1 -i 14 -a 1 -x {0.0 5.0 4 ------- null}
- -t 0.7152 -s 4 -d 5 -p tcp -e 1040 -c 2 -i 15 -a 2 -x {1.0 5.1 3 ------- null}
h -t 0.7152 -s 4 -d 5 -p tcp -e 1040 -c 2 -i 15 -a 2 -x {1.0 5.1 -1 ------- null}
r -t 0.72352 -s 1 -d 4 -p tcp -e 1040 -c 2 -i 16 -a 2 -x {1.0 5.1 4 ------- null}
+ -t 0.72352 -s 4 -d 5 -p tcp -e 1040 -c 2 -i 16 -a 2 -x {1.0 5.1 4 ------- null}
- -t 0.72352 -s 4 -d 5 -p tcp -e 1040 -c 2 -i 16 -a 2 -x {1.0 5.1 4 ------- null}
h -t 0.72352 -s 4 -d 5 -p tcp -e 1040 -c 2 -i 16 -a 2 -x {1.0 5.1 -1 ------- null}
r -t 0.73184 -s 1 -d 4 -p tcp -e 1040 -c 2 -i 17 -a 2 -x {1.0 5.1 5 ------- null}
+ -t 0.73184 -s 4 -d 5 -p tcp -e 1040 -c 2 -i 17 -a 2 -x {1.0 5.1 5 ------- null}
- -t 0.73184 -s 4 -d 5 -p tcp -e 1040 -c 2 -i 17 -a 2 -x {1.0 5.1 5 ------- null}
h -t 0.73184 -s 4 -d 5 -p tcp -e 1040 -c 2 -i 17 -a 2 -x {1.0 5.1 -1 ------- null}
r -t 0.7352 -s 4 -d 5 -p tcp -e 1040 -c 1 -i 13 -a 1 -x {0.0 5.0 3 ------- null}
+ -t 0.7352 -s 5 -d 4 -p ack -e 40 -c 1 -i 19 -a 1 -x {5.0 0.0 1 ------- null}
- -t 0.7352 -s 5 -d 4 -p ack -e 40 -c 1 -i 19 -a 1 -x {5.0 0.0 1 ------- null}
h -t 0.7352 -s 5 -d 4 -p ack -e 40 -c 1 -i 19 -a 1 -x {5.0 0.0 -1 ------- null}
r -t 0.74016 -s 1 -d 4 -p tcp -e 1040 -c 2 -i 18 -a 2 -x {1.0 5.1 6 ------- null}
+ -t 0.74016 -s 4 -d 5 -p tcp -e 1040 -c 2 -i 18 -a 2 -x {1.0 5.1 6 ------- null}
- -t 0.74016 -s 4 -d 5 -p tcp -e 1040 -c 2 -i 18 -a 2 -x {1.0 5.1 6 ------- null}
h -t 0.74016 -s 4 -d 5 -p tcp -e 1040 -c 2 -i 18 -a 2 -x {1.0 5.1 -1 ------- null}
r -t 0.74352 -s 4 -d 5 -p tcp -e 1040 -c 2 -i 15 -a 2 -x {1.0 5.1 3 ------- null}
+ -t 0.74352 -s 5 -d 4 -p ack -e 40 -c 2 -i 20 -a 2 -x {5.1 1.0 3 ------- null}
- -t 0.74352 -s 5 -d 4 -p ack -e 40 -c 2 -i 20 -a 2 -x {5.1 1.0 3 ------- null}
h -t 0.74352 -s 5 -d 4 -p ack -e 40 -c 2 -i 20 -a 2 -x {5.1 1.0 -1 ------- null}
r -t 0.75184 -s 4 -d 5 -p tcp -e 1040 -c 2 -i 16 -a 2 -x {1.0 5.1 4 ------- null}
+ -t 0.75184 -s 5 -d 4 -p ack -e 40 -c 2 -i 21 -a 2 -x {5.1 1.0 4 ------- null}
- -t 0.75184 -s 5 -d 4 -p ack -e 40 -c 2 -i 21 -a 2 -x {5.1 1.0 4 ------- null}
h -t 0.75184 -s 5 -d 4 -p ack -e 40 -c 2 -i 21 -a 2 -x {5.1 1.0 -1 ------- null}
r -t 0.75552 -s 5 -d 4 -p ack -e 40 -c 1 -i 19 -a 1 -x {5.0 0.0 1 ------- null}
+ -t 0.75552 -s 4 -d 0 -p ack -e 40 -c 1 -i 19 -a 1 -x {5.0 0.0 1 ------- null}
- -t 0.75552 -s 4 -d 0 -p ack -e 40 -c 1 -i 19 -a 1 -x {5.0 0.0 1 ------- null}
h -t 0.75552 -s 4 -d 0 -p ack -e 40 -c 1 -i 19 -a 1 -x {5.0 0.0 -1 ------- null}
r -t 0.76016 -s 4 -d 5 -p tcp -e 1040 -c 2 -i 17 -a 2 -x {1.0 5.1 5 ------- null}
+ -t 0.76016 -s 5 -d 4 -p ack -e 40 -c 2 -i 22 -a 2 -x {5.1 1.0 5 ------- null}
- -t 0.76016 -s 5 -d 4 -p ack -e 40 -c 2 -i 22 -a 2 -x {5.1 1.0 5 ------- null}
h -t 0.76016 -s 5 -d 4 -p ack -e 40 -c 2 -i 22 -a 2 -x {5.1 1.0 -1 ------- null}
r -t 0.76384 -s 5 -d 4 -p ack -e 40 -c 2 -i 20 -a 2 -x {5.1 1.0 3 ------- null}
+ -t 0.76384 -s 4 -d 1 -p ack -e 40 -c 2 -i 20 -a 2 -x {5.1 1.0 3 ------- null}
- -t 0.76384 -s 4 -d 1 -p ack -e 40 -c 2 -i 20 -a 2 -x {5.1 1.0 3 ------- null}
h -t 0.76384 -s 4 -d 1 -p ack -e 40 -c 2 -i 20 -a 2 -x {5.1 1.0 -1 ------- null}
r -t 0.76848 -s 4 -d 5 -p tcp -e 1040 -c 2 -i 18 -a 2 -x {1.0 5.1 6 ------- null}
+ -t 0.76848 -s 5 -d 4 -p ack -e 40 -c 2 -i 23 -a 2 -x {5.1 1.0 6 ------- null}
- -t 0.76848 -s 5 -d 4 -p ack -e 40 -c 2 -i 23 -a 2 -x {5.1 1.0 6 ------- null}
h -t 0.76848 -s 5 -d 4 -p ack -e 40 -c 2 -i 23 -a 2 -x {5.1 1.0 -1 ------- null}
r -t 0.77216 -s 5 -d 4 -p ack -e 40 -c 2 -i 21 -a 2 -x {5.1 1.0 4 ------- null}
+ -t 0.77216 -s 4 -d 1 -p ack -e 40 -c 2 -i 21 -a 2 -x {5.1 1.0 4 ------- null}
- -t 0.77216 -s 4 -d 1 -p ack -e 40 -c 2 -i 21 -a 2 -x {5.1 1.0 4 ------- null}
h -t 0.77216 -s 4 -d 1 -p ack -e 40 -c 2 -i 21 -a 2 -x {5.1 1.0 -1 ------- null}
r -t 0.78048 -s 5 -d 4 -p ack -e 40 -c 2 -i 22 -a 2 -x {5.1 1.0 5 ------- null}
+ -t 0.78048 -s 4 -d 1 -p ack -e 40 -c 2 -i 22 -a 2 -x {5.1 1.0 5 ------- null}
- -t 0.78048 -s 4 -d 1 -p ack -e 40 -c 2 -i 22 -a 2 -x {5.1 1.0 5 ------- null}
h -t 0.78048 -s 4 -d 1 -p ack -e 40 -c 2 -i 22 -a 2 -x {5.1 1.0 -1 ------- null}
r -t 0.7888 -s 5 -d 4 -p ack -e 40 -c 2 -i 23 -a 2 -x {5.1 1.0 6 ------- null}
+ -t 0.7888 -s 4 -d 1 -p ack -e 40 -c 2 -i 23 -a 2 -x {5.1 1.0 6 ------- null}
- -t 0.7888 -s 4 -d 1 -p ack -e 40 -c 2 -i 23 -a 2 -x {5.1 1.0 6 ------- null}
h -t 0.7888 -s 4 -d 1 -p ack -e 40 -c 2 -i 23 -a 2 -x {5.1 1.0 -1 ------- null}
r -t 0.85584 -s 4 -d 0 -p ack -e 40 -c 1 -i 19 -a 1 -x {5.0 0.0 1 ------- null}
+ -t 0.85584 -s 0 -d 4 -p tcp -e 1040 -c 1 -i 24 -a 1 -x {0.0 5.0 5 ------- null}
- -t 0.85584 -s 0 -d 4 -p tcp -e 1040 -c 1 -i 24 -a 1 -x {0.0 5.0 5 ------- null}
h -t 0.85584 -s 0 -d 4 -p tcp -e 1040 -c 1 -i 24 -a 1 -x {0.0 5.0 -1 ------- null}
r -t 0.86416 -s 4 -d 1 -p ack -e 40 -c 2 -i 20 -a 2 -x {5.1 1.0 3 ------- null}
+ -t 0.86416 -s 1 -d 4 -p tcp -e 1040 -c 2 -i 25 -a 2 -x {1.0 5.1 7 ------- null}
- -t 0.86416 -s 1 -d 4 -p tcp -e 1040 -c 2 -i 25 -a 2 -x {1.0 5.1 7 ------- null}
h -t 0.86416 -s 1 -d 4 -p tcp -e 1040 -c 2 -i 25 -a 2 -x {1.0 5.1 -1 ------- null}
+ -t 0.86416 -s 1 -d 4 -p tcp -e 1040 -c 2 -i 26 -a 2 -x {1.0 5.1 8 ------- null}
r -t 0.87248 -s 4 -d 1 -p ack -e 40 -c 2 -i 21 -a 2 -x {5.1 1.0 4 ------- null}
+ -t 0.87248 -s 1 -d 4 -p tcp -e 1040 -c 2 -i 27 -a 2 -x {1.0 5.1 9 ------- null}
+ -t 0.87248 -s 1 -d 4 -p tcp -e 1040 -c 2 -i 28 -a 2 -x {1.0 5.1 10 ------- null}
- -t 0.87248 -s 1 -d 4 -p tcp -e 1040 -c 2 -i 26 -a 2 -x {1.0 5.1 8 ------- null}
h -t 0.87248 -s 1 -d 4 -p tcp -e 1040 -c 2 -i 26 -a 2 -x {1.0 5.1 -1 ------- null}
r -t 0.8808 -s 4 -d 1 -p ack -e 40 -c 2 -i 22 -a 2 -x {5.1 1.0 5 ------- null}
+ -t 0.8808 -s 1 -d 4 -p tcp -e 1040 -c 2 -i 29 -a 2 -x {1.0 5.1 11 ------- null}
+ -t 0.8808 -s 1 -d 4 -p tcp -e 1040 -c 2 -i 30 -a 2 -x {1.0 5.1 12 ------- null}
- -t 0.8808 -s 1 -d 4 -p tcp -e 1040 -c 2 -i 27 -a 2 -x {1.0 5.1 9 ------- null}
h -t 0.8808 -s 1 -d 4 -p tcp -e 1040 -c 2 -i 27 -a 2 -x {1.0 5.1 -1 ------- null}
r -t 0.88912 -s 4 -d 1 -p ack -e 40 -c 2 -i 23 -a 2 -x {5.1 1.0 6 ------- null}
+ -t 0.88912 -s 1 -d 4 -p tcp -e 1040 -c 2 -i 31 -a 2 -x {1.0 5.1 13 ------- null}
+ -t 0.88912 -s 1 -d 4 -p tcp -e 1040 -c 2 -i 32 -a 2 -x {1.0 5.1 14 ------- null}
- -t 0.88912 -s 1 -d 4 -p tcp -e 1040 -c 2 -i 28 -a 2 -x {1.0 5.1 10 ------- null}
h -t 0.88912 -s 1 -d 4 -p tcp -e 1040 -c 2 -i 28 -a 2 -x {1.0 5.1 -1 ------- null}
- -t 0.89744 -s 1 -d 4 -p tcp -e 1040 -c 2 -i 29 -a 2 -x {1.0 5.1 11 ------- null}
h -t 0.89744 -s 1 -d 4 -p tcp -e 1040 -c 2 -i 29 -a 2 -x {1.0 5.1 -1 ------- null}
- -t 0.90576 -s 1 -d 4 -p tcp -e 1040 -c 2 -i 30 -a 2 -x {1.0 5.1 12 ------- null}
h -t 0.90576 -s 1 -d 4 -p tcp -e 1040 -c 2 -i 30 -a 2 -x {1.0 5.1 -1 ------- null}
- -t 0.91408 -s 1 -d 4 -p tcp -e 1040 -c 2 -i 31 -a 2 -x {1.0 5.1 13 ------- null}
h -t 0.91408 -s 1 -d 4 -p tcp -e 1040 -c 2 -i 31 -a 2 -x {1.0 5.1 -1 ------- null}
- -t 0.9224 -s 1 -d 4 -p tcp -e 1040 -c 2 -i 32 -a 2 -x {1.0 5.1 14 ------- null}
h -t 0.9224 -s 1 -d 4 -p tcp -e 1040 -c 2 -i 32 -a 2 -x {1.0 5.1 -1 ------- null}
r -t 0.96416 -s 0 -d 4 -p tcp -e 1040 -c 1 -i 24 -a 1 -x {0.0 5.0 5 ------- null}
+ -t 0.96416 -s 4 -d 5 -p tcp -e 1040 -c 1 -i 24 -a 1 -x {0.0 5.0 5 ------- null}
- -t 0.96416 -s 4 -d 5 -p tcp -e 1040 -c 1 -i 24 -a 1 -x {0.0 5.0 5 ------- null}
h -t 0.96416 -s 4 -d 5 -p tcp -e 1040 -c 1 -i 24 -a 1 -x {0.0 5.0 -1 ------- null}
r -t 0.97248 -s 1 -d 4 -p tcp -e 1040 -c 2 -i 25 -a 2 -x {1.0 5.1 7 ------- null}
+ -t 0.97248 -s 4 -d 5 -p tcp -e 1040 -c 2 -i 25 -a 2 -x {1.0 5.1 7 ------- null}
- -t 0.97248 -s 4 -d 5 -p tcp -e 1040 -c 2 -i 25 -a 2 -x {1.0 5.1 7 ------- null}
h -t 0.97248 -s 4 -d 5 -p tcp -e 1040 -c 2 -i 25 -a 2 -x {1.0 5.1 -1 ------- null}
r -t 0.9808 -s 1 -d 4 -p tcp -e 1040 -c 2 -i 26 -a 2 -x {1.0 5.1 8 ------- null}
+ -t 0.9808 -s 4 -d 5 -p tcp -e 1040 -c 2 -i 26 -a 2 -x {1.0 5.1 8 ------- null}
- -t 0.9808 -s 4 -d 5 -p tcp -e 1040 -c 2 -i 26 -a 2 -x {1.0 5.1 8 ------- null}
h -t 0.9808 -s 4 -d 5 -p tcp -e 1040 -c 2 -i 26 -a 2 -x {1.0 5.1 -1 ------- null}
r -t 0.98912 -s 1 -d 4 -p tcp -e 1040 -c 2 -i 27 -a 2 -x {1.0 5.1 9 ------- null}
+ -t 0.98912 -s 4 -d 5 -p tcp -e 1040 -c 2 -i 27 -a 2 -x {1.0 5.1 9 ------- null}
- -t 0.98912 -s 4 -d 5 -p tcp -e 1040 -c 2 -i 27 -a 2 -x {1.0 5.1 9 ------- null}
h -t 0.98912 -s 4 -d 5 -p tcp -e 1040 -c 2 -i 27 -a 2 -x {1.0 5.1 -1 ------- null}
r -t 0.99248 -s 4 -d 5 -p tcp -e 1040 -c 1 -i 24 -a 1 -x {0.0 5.0 5 ------- null}
+ -t 0.99248 -s 5 -d 4 -p ack -e 40 -c 1 -i 33 -a 1 -x {5.0 0.0 1 ------- null}
- -t 0.99248 -s 5 -d 4 -p ack -e 40 -c 1 -i 33 -a 1 -x {5.0 0.0 1 ------- null}
h -t 0.99248 -s 5 -d 4 -p ack -e 40 -c 1 -i 33 -a 1 -x {5.0 0.0 -1 ------- null}
r -t 0.99744 -s 1 -d 4 -p tcp -e 1040 -c 2 -i 28 -a 2 -x {1.0 5.1 10 ------- null}
+ -t 0.99744 -s 4 -d 5 -p tcp -e 1040 -c 2 -i 28 -a 2 -x {1.0 5.1 10 ------- null}
- -t 0.99744 -s 4 -d 5 -p tcp -e 1040 -c 2 -i 28 -a 2 -x {1.0 5.1 10 ------- null}
h -t 0.99744 -s 4 -d 5 -p tcp -e 1040 -c 2 -i 28 -a 2 -x {1.0 5.1 -1 ------- null}
r -t 1.0008 -s 4 -d 5 -p tcp -e 1040 -c 2 -i 25 -a 2 -x {1.0 5.1 7 ------- null}
+ -t 1.0008 -s 5 -d 4 -p ack -e 40 -c 2 -i 34 -a 2 -x {5.1 1.0 7 ------- null}
- -t 1.0008 -s 5 -d 4 -p ack -e 40 -c 2 -i 34 -a 2 -x {5.1 1.0 7 ------- null}
h -t 1.0008 -s 5 -d 4 -p ack -e 40 -c 2 -i 34 -a 2 -x {5.1 1.0 -1 ------- null}
r -t 1.00576 -s 1 -d 4 -p tcp -e 1040 -c 2 -i 29 -a 2 -x {1.0 5.1 11 ------- null}
+ -t 1.00576 -s 4 -d 5 -p tcp -e 1040 -c 2 -i 29 -a 2 -x {1.0 5.1 11 ------- null}
- -t 1.00576 -s 4 -d 5 -p tcp -e 1040 -c 2 -i 29 -a 2 -x {1.0 5.1 11 ------- null}
h -t 1.00576 -s 4 -d 5 -p tcp -e 1040 -c 2 -i 29 -a 2 -x {1.0 5.1 -1 ------- null}
r -t 1.00912 -s 4 -d 5 -p tcp -e 1040 -c 2 -i 26 -a 2 -x {1.0 5.1 8 ------- null}
+ -t 1.00912 -s 5 -d 4 -p ack -e 40 -c 2 -i 35 -a 2 -x {5.1 1.0 8 ------- null}
- -t 1.00912 -s 5 -d 4 -p ack -e 40 -c 2 -i 35 -a 2 -x {5.1 1.0 8 ------- null}
h -t 1.00912 -s 5 -d 4 -p ack -e 40 -c 2 -i 35 -a 2 -x {5.1 1.0 -1 ------- null}
r -t 1.0128 -s 5 -d 4 -p ack -e 40 -c 1 -i 33 -a 1 -x {5.0 0.0 1 ------- null}
+ -t 1.0128 -s 4 -d 0 -p ack -e 40 -c 1 -i 33 -a 1 -x {5.0 0.0 1 ------- null}
- -t 1.0128 -s 4 -d 0 -p ack -e 40 -c 1 -i 33 -a 1 -x {5.0 0.0 1 ------- null}
h -t 1.0128 -s 4 -d 0 -p ack -e 40 -c 1 -i 33 -a 1 -x {5.0 0.0 -1 ------- null}
r -t 1.01408 -s 1 -d 4 -p tcp -e 1040 -c 2 -i 30 -a 2 -x {1.0 5.1 12 ------- null}
+ -t 1.01408 -s 4 -d 5 -p tcp -e 1040 -c 2 -i 30 -a 2 -x {1.0 5.1 12 ------- null}
- -t 1.01408 -s 4 -d 5 -p tcp -e 1040 -c 2 -i 30 -a 2 -x {1.0 5.1 12 ------- null}
h -t 1.01408 -s 4 -d 5 -p tcp -e 1040 -c 2 -i 30 -a 2 -x {1.0 5.1 -1 ------- null}
r -t 1.01744 -s 4 -d 5 -p tcp -e 1040 -c 2 -i 27 -a 2 -x {1.0 5.1 9 ------- null}
+ -t 1.01744 -s 5 -d 4 -p ack -e 40 -c 2 -i 36 -a 2 -x {5.1 1.0 9 ------- null}
- -t 1.01744 -s 5 -d 4 -p ack -e 40 -c 2 -i 36 -a 2 -x {5.1 1.0 9 ------- null}
h -t 1.01744 -s 5 -d 4 -p ack -e 40 -c 2 -i 36 -a 2 -x {5.1 1.0 -1 ------- null}
r -t 1.02112 -s 5 -d 4 -p ack -e 40 -c 2 -i 34 -a 2 -x {5.1 1.0 7 ------- null}
+ -t 1.02112 -s 4 -d 1 -p ack -e 40 -c 2 -i 34 -a 2 -x {5.1 1.0 7 ------- null}
- -t 1.02112 -s 4 -d 1 -p ack -e 40 -c 2 -i 34 -a 2 -x {5.1 1.0 7 ------- null}
h -t 1.02112 -s 4 -d 1 -p ack -e 40 -c 2 -i 34 -a 2 -x {5.1 1.0 -1 ------- null}
r -t 1.0224 -s 1 -d 4 -p tcp -e 1040 -c 2 -i 31 -a 2 -x {1.0 5.1 13 ------- null}
+ -t 1.0224 -s 4 -d 5 -p tcp -e 1040 -c 2 -i 31 -a 2 -x {1.0 5.1 13 ------- null}
- -t 1.0224 -s 4 -d 5 -p tcp -e 1040 -c 2 -i 31 -a 2 -x {1.0 5.1 13 ------- null}
h -t 1.0224 -s 4 -d 5 -p tcp -e 1040 -c 2 -i 31 -a 2 -x {1.0 5.1 -1 ------- null}
r -t 1.02576 -s 4 -d 5 -p tcp -e 1040 -c 2 -i 28 -a 2 -x {1.0 5.1 10 ------- null}
+ -t 1.02576 -s 5 -d 4 -p ack -e 40 -c 2 -i 37 -a 2 -x {5.1 1.0 10 ------- null}
- -t 1.02576 -s 5 -d 4 -p ack -e 40 -c 2 -i 37 -a 2 -x {5.1 1.0 10 ------- null}
h -t 1.02576 -s 5 -d 4 -p ack -e 40 -c 2 -i 37 -a 2 -x {5.1 1.0 -1 ------- null}
r -t 1.02944 -s 5 -d 4 -p ack -e 40 -c 2 -i 35 -a 2 -x {5.1 1.0 8 ------- null}
+ -t 1.02944 -s 4 -d 1 -p ack -e 40 -c 2 -i 35 -a 2 -x {5.1 1.0 8 ------- null}
- -t 1.02944 -s 4 -d 1 -p ack -e 40 -c 2 -i 35 -a 2 -x {5.1 1.0 8 ------- null}
h -t 1.02944 -s 4 -d 1 -p ack -e 40 -c 2 -i 35 -a 2 -x {5.1 1.0 -1 ------- null}
r -t 1.03072 -s 1 -d 4 -p tcp -e 1040 -c 2 -i 32 -a 2 -x {1.0 5.1 14 ------- null}
+ -t 1.03072 -s 4 -d 5 -p tcp -e 1040 -c 2 -i 32 -a 2 -x {1.0 5.1 14 ------- null}
- -t 1.03072 -s 4 -d 5 -p tcp -e 1040 -c 2 -i 32 -a 2 -x {1.0 5.1 14 ------- null}
h -t 1.03072 -s 4 -d 5 -p tcp -e 1040 -c 2 -i 32 -a 2 -x {1.0 5.1 -1 ------- null}
r -t 1.03408 -s 4 -d 5 -p tcp -e 1040 -c 2 -i 29 -a 2 -x {1.0 5.1 11 ------- null}
+ -t 1.03408 -s 5 -d 4 -p ack -e 40 -c 2 -i 38 -a 2 -x {5.1 1.0 11 ------- null}
- -t 1.03408 -s 5 -d 4 -p ack -e 40 -c 2 -i 38 -a 2 -x {5.1 1.0 11 ------- null}
h -t 1.03408 -s 5 -d 4 -p ack -e 40 -c 2 -i 38 -a 2 -x {5.1 1.0 -1 ------- null}
r -t 1.03776 -s 5 -d 4 -p ack -e 40 -c 2 -i 36 -a 2 -x {5.1 1.0 9 ------- null}
+ -t 1.03776 -s 4 -d 1 -p ack -e 40 -c 2 -i 36 -a 2 -x {5.1 1.0 9 ------- null}
- -t 1.03776 -s 4 -d 1 -p ack -e 40 -c 2 -i 36 -a 2 -x {5.1 1.0 9 ------- null}
h -t 1.03776 -s 4 -d 1 -p ack -e 40 -c 2 -i 36 -a 2 -x {5.1 1.0 -1 ------- null}
r -t 1.0424 -s 4 -d 5 -p tcp -e 1040 -c 2 -i 30 -a 2 -x {1.0 5.1 12 ------- null}
+ -t 1.0424 -s 5 -d 4 -p ack -e 40 -c 2 -i 39 -a 2 -x {5.1 1.0 12 ------- null}
- -t 1.0424 -s 5 -d 4 -p ack -e 40 -c 2 -i 39 -a 2 -x {5.1 1.0 12 ------- null}
h -t 1.0424 -s 5 -d 4 -p ack -e 40 -c 2 -i 39 -a 2 -x {5.1 1.0 -1 ------- null}
r -t 1.04608 -s 5 -d 4 -p ack -e 40 -c 2 -i 37 -a 2 -x {5.1 1.0 10 ------- null}
+ -t 1.04608 -s 4 -d 1 -p ack -e 40 -c 2 -i 37 -a 2 -x {5.1 1.0 10 ------- null}
- -t 1.04608 -s 4 -d 1 -p ack -e 40 -c 2 -i 37 -a 2 -x {5.1 1.0 10 ------- null}
h -t 1.04608 -s 4 -d 1 -p ack -e 40 -c 2 -i 37 -a 2 -x {5.1 1.0 -1 ------- null}
r -t 1.05072 -s 4 -d 5 -p tcp -e 1040 -c 2 -i 31 -a 2 -x {1.0 5.1 13 ------- null}
+ -t 1.05072 -s 5 -d 4 -p ack -e 40 -c 2 -i 40 -a 2 -x {5.1 1.0 13 ------- null}
- -t 1.05072 -s 5 -d 4 -p ack -e 40 -c 2 -i 40 -a 2 -x {5.1 1.0 13 ------- null}
h -t 1.05072 -s 5 -d 4 -p ack -e 40 -c 2 -i 40 -a 2 -x {5.1 1.0 -1 ------- null}
r -t 1.0544 -s 5 -d 4 -p ack -e 40 -c 2 -i 38 -a 2 -x {5.1 1.0 11 ------- null}
+ -t 1.0544 -s 4 -d 1 -p ack -e 40 -c 2 -i 38 -a 2 -x {5.1 1.0 11 ------- null}
- -t 1.0544 -s 4 -d 1 -p ack -e 40 -c 2 -i 38 -a 2 -x {5.1 1.0 11 ------- null}
h -t 1.0544 -s 4 -d 1 -p ack -e 40 -c 2 -i 38 -a 2 -x {5.1 1.0 -1 ------- null}
r -t 1.05904 -s 4 -d 5 -p tcp -e 1040 -c 2 -i 32 -a 2 -x {1.0 5.1 14 ------- null}
+ -t 1.05904 -s 5 -d 4 -p ack -e 40 -c 2 -i 41 -a 2 -x {5.1 1.0 14 ------- null}
- -t 1.05904 -s 5 -d 4 -p ack -e 40 -c 2 -i 41 -a 2 -x {5.1 1.0 14 ------- null}
h -t 1.05904 -s 5 -d 4 -p ack -e 40 -c 2 -i 41 -a 2 -x {5.1 1.0 -1 ------- null}
r -t 1.06272 -s 5 -d 4 -p ack -e 40 -c 2 -i 39 -a 2 -x {5.1 1.0 12 ------- null}
+ -t 1.06272 -s 4 -d 1 -p ack -e 40 -c 2 -i 39 -a 2 -x {5.1 1.0 12 ------- null}
- -t 1.06272 -s 4 -d 1 -p ack -e 40 -c 2 -i 39 -a 2 -x {5.1 1.0 12 ------- null}
h -t 1.06272 -s 4 -d 1 -p ack -e 40 -c 2 -i 39 -a 2 -x {5.1 1.0 -1 ------- null}
r -t 1.07104 -s 5 -d 4 -p ack -e 40 -c 2 -i 40 -a 2 -x {5.1 1.0 13 ------- null}
+ -t 1.07104 -s 4 -d 1 -p ack -e 40 -c 2 -i 40 -a 2 -x {5.1 1.0 13 ------- null}
- -t 1.07104 -s 4 -d 1 -p ack -e 40 -c 2 -i 40 -a 2 -x {5.1 1.0 13 ------- null}
h -t 1.07104 -s 4 -d 1 -p ack -e 40 -c 2 -i 40 -a 2 -x {5.1 1.0 -1 ------- null}
r -t 1.07936 -s 5 -d 4 -p ack -e 40 -c 2 -i 41 -a 2 -x {5.1 1.0 14 ------- null}
+ -t 1.07936 -s 4 -d 1 -p ack -e 40 -c 2 -i 41 -a 2 -x {5.1 1.0 14 ------- null}
- -t 1.07936 -s 4 -d 1 -p ack -e 40 -c 2 -i 41 -a 2 -x {5.1 1.0 14 ------- null}
h -t 1.07936 -s 4 -d 1 -p ack -e 40 -c 2 -i 41 -a 2 -x {5.1 1.0 -1 ------- null}
r -t 1.11312 -s 4 -d 0 -p ack -e 40 -c 1 -i 33 -a 1 -x {5.0 0.0 1 ------- null}
+ -t 1.11312 -s 0 -d 4 -p tcp -e 1040 -c 1 -i 42 -a 1 -x {0.0 5.0 6 ------- null}
- -t 1.11312 -s 0 -d 4 -p tcp -e 1040 -c 1 -i 42 -a 1 -x {0.0 5.0 6 ------- null}
h -t 1.11312 -s 0 -d 4 -p tcp -e 1040 -c 1 -i 42 -a 1 -x {0.0 5.0 -1 ------- null}
r -t 1.12144 -s 4 -d 1 -p ack -e 40 -c 2 -i 34 -a 2 -x {5.1 1.0 7 ------- null}
+ -t 1.12144 -s 1 -d 4 -p tcp -e 1040 -c 2 -i 43 -a 2 -x {1.0 5.1 15 ------- null}
- -t 1.12144 -s 1 -d 4 -p tcp -e 1040 -c 2 -i 43 -a 2 -x {1.0 5.1 15 ------- null}
h -t 1.12144 -s 1 -d 4 -p tcp -e 1040 -c 2 -i 43 -a 2 -x {1.0 5.1 -1 ------- null}
+ -t 1.12144 -s 1 -d 4 -p tcp -e 1040 -c 2 -i 44 -a 2 -x {1.0 5.1 16 ------- null}
r -t 1.12976 -s 4 -d 1 -p ack -e 40 -c 2 -i 35 -a 2 -x {5.1 1.0 8 ------- null}
+ -t 1.12976 -s 1 -d 4 -p tcp -e 1040 -c 2 -i 45 -a 2 -x {1.0 5.1 17 ------- null}
+ -t 1.12976 -s 1 -d 4 -p tcp -e 1040 -c 2 -i 46 -a 2 -x {1.0 5.1 18 ------- null}
- -t 1.12976 -s 1 -d 4 -p tcp -e 1040 -c 2 -i 44 -a 2 -x {1.0 5.1 16 ------- null}
h -t 1.12976 -s 1 -d 4 -p tcp -e 1040 -c 2 -i 44 -a 2 -x {1.0 5.1 -1 ------- null}
r -t 1.13808 -s 4 -d 1 -p ack -e 40 -c 2 -i 36 -a 2 -x {5.1 1.0 9 ------- null}
+ -t 1.13808 -s 1 -d 4 -p tcp -e 1040 -c 2 -i 47 -a 2 -x {1.0 5.1 19 ------- null}
+ -t 1.13808 -s 1 -d 4 -p tcp -e 1040 -c 2 -i 48 -a 2 -x {1.0 5.1 20 ------- null}
- -t 1.13808 -s 1 -d 4 -p tcp -e 1040 -c 2 -i 45 -a 2 -x {1.0 5.1 17 ------- null}
h -t 1.13808 -s 1 -d 4 -p tcp -e 1040 -c 2 -i 45 -a 2 -x {1.0 5.1 -1 ------- null}
r -t 1.1464 -s 4 -d 1 -p ack -e 40 -c 2 -i 37 -a 2 -x {5.1 1.0 10 ------- null}
+ -t 1.1464 -s 1 -d 4 -p tcp -e 1040 -c 2 -i 49 -a 2 -x {1.0 5.1 21 ------- null}
+ -t 1.1464 -s 1 -d 4 -p tcp -e 1040 -c 2 -i 50 -a 2 -x {1.0 5.1 22 ------- null}
- -t 1.1464 -s 1 -d 4 -p tcp -e 1040 -c 2 -i 46 -a 2 -x {1.0 5.1 18 ------- null}
h -t 1.1464 -s 1 -d 4 -p tcp -e 1040 -c 2 -i 46 -a 2 -x {1.0 5.1 -1 ------- null}
r -t 1.15472 -s 4 -d 1 -p ack -e 40 -c 2 -i 38 -a 2 -x {5.1 1.0 11 ------- null}
+ -t 1.15472 -s 1 -d 4 -p tcp -e 1040 -c 2 -i 51 -a 2 -x {1.0 5.1 23 ------- null}
+ -t 1.15472 -s 1 -d 4 -p tcp -e 1040 -c 2 -i 52 -a 2 -x {1.0 5.1 24 ------- null}
- -t 1.15472 -s 1 -d 4 -p tcp -e 1040 -c 2 -i 47 -a 2 -x {1.0 5.1 19 ------- null}
h -t 1.15472 -s 1 -d 4 -p tcp -e 1040 -c 2 -i 47 -a 2 -x {1.0 5.1 -1 ------- null}
r -t 1.16304 -s 4 -d 1 -p ack -e 40 -c 2 -i 39 -a 2 -x {5.1 1.0 12 ------- null}
+ -t 1.16304 -s 1 -d 4 -p tcp -e 1040 -c 2 -i 53 -a 2 -x {1.0 5.1 25 ------- null}
+ -t 1.16304 -s 1 -d 4 -p tcp -e 1040 -c 2 -i 54 -a 2 -x {1.0 5.1 26 ------- null}
- -t 1.16304 -s 1 -d 4 -p tcp -e 1040 -c 2 -i 48 -a 2 -x {1.0 5.1 20 ------- null}
h -t 1.16304 -s 1 -d 4 -p tcp -e 1040 -c 2 -i 48 -a 2 -x {1.0 5.1 -1 ------- null}
r -t 1.17136 -s 4 -d 1 -p ack -e 40 -c 2 -i 40 -a 2 -x {5.1 1.0 13 ------- null}
+ -t 1.17136 -s 1 -d 4 -p tcp -e 1040 -c 2 -i 55 -a 2 -x {1.0 5.1 27 ------- null}
+ -t 1.17136 -s 1 -d 4 -p tcp -e 1040 -c 2 -i 56 -a 2 -x {1.0 5.1 28 ------- null}
- -t 1.17136 -s 1 -d 4 -p tcp -e 1040 -c 2 -i 49 -a 2 -x {1.0 5.1 21 ------- null}
h -t 1.17136 -s 1 -d 4 -p tcp -e 1040 -c 2 -i 49 -a 2 -x {1.0 5.1 -1 ------- null}
r -t 1.17968 -s 4 -d 1 -p ack -e 40 -c 2 -i 41 -a 2 -x {5.1 1.0 14 ------- null}